 Entering Gaussian System, Link 0=g09
 Initial command:
 /global/apps/Gaussian/09.d01/l1.exe "/global/work/bentesirinbarge/2566415/Gau-58888.inp" -scrdir="/global/work/bentesirinbarge/2566415/"
 Entering Link 1 = /global/apps/Gaussian/09.d01/l1.exe PID=     58889.
  
 Copyright (c) 1988,1990,1992,1993,1995,1998,2003,2009,2013,
            Gaussian, Inc.  All Rights Reserved.
  
 This is part of the Gaussian(R) 09 program.  It is based on
 the Gaussian(R) 03 system (copyright 2003, Gaussian, Inc.),
 the Gaussian(R) 98 system (copyright 1998, Gaussian, Inc.),
 the Gaussian(R) 94 system (copyright 1995, Gaussian, Inc.),
 the Gaussian 92(TM) system (copyright 1992, Gaussian, Inc.),
 the Gaussian 90(TM) system (copyright 1990, Gaussian, Inc.),
 the Gaussian 88(TM) system (copyright 1988, Gaussian, Inc.),
 the Gaussian 86(TM) system (copyright 1986, Carnegie Mellon
 University), and the Gaussian 82(TM) system (copyright 1983,
 Carnegie Mellon University). Gaussian is a federally registered
 trademark of Gaussian, Inc.
  
 This software contains proprietary and confidential information,
 including trade secrets, belonging to Gaussian, Inc.
  
 This software is provided under written license and may be
 used, copied, transmitted, or stored only in accord with that
 written license.
  
 The following legend is applicable only to US Government
 contracts under FAR:
  
                    RESTRICTED RIGHTS LEGEND
  
 Use, reproduction and disclosure by the US Government is
 subject to restrictions as set forth in subparagraphs (a)
 and (c) of the Commercial Computer Software - Restricted
 Rights clause in FAR 52.227-19.
  
 Gaussian, Inc.
 340 Quinnipiac St., Bldg. 40, Wallingford CT 06492
  
  
 ---------------------------------------------------------------
 Warning -- This program may not be used in any manner that
 competes with the business of Gaussian, Inc. or will provide
 assistance to any competitor of Gaussian, Inc.  The licensee
 of this program is prohibited from giving any competitor of
 Gaussian, Inc. access to this program.  By using this program,
 the user acknowledges that Gaussian, Inc. is engaged in the
 business of creating and licensing software in the field of
 computational chemistry and represents and warrants to the
 licensee that it is not a competitor of Gaussian, Inc. and that
 it will not use this program in any manner prohibited above.
 ---------------------------------------------------------------
  

 Cite this work as:
 Gaussian 09, Revision D.01,
 M. J. Frisch, G. W. Trucks, H. B. Schlegel, G. E. Scuseria, 
 M. A. Robb, J. R. Cheeseman, G. Scalmani, V. Barone, B. Mennucci, 
 G. A. Petersson, H. Nakatsuji, M. Caricato, X. Li, H. P. Hratchian, 
 A. F. Izmaylov, J. Bloino, G. Zheng, J. L. Sonnenberg, M. Hada, 
 M. Ehara, K. Toyota, R. Fukuda, J. Hasegawa, M. Ishida, T. Nakajima, 
 Y. Honda, O. Kitao, H. Nakai, T. Vreven, J. A. Montgomery, Jr., 
 J. E. Peralta, F. Ogliaro, M. Bearpark, J. J. Heyd, E. Brothers, 
 K. N. Kudin, V. N. Staroverov, T. Keith, R. Kobayashi, J. Normand, 
 K. Raghavachari, A. Rendell, J. C. Burant, S. S. Iyengar, J. Tomasi, 
 M. Cossi, N. Rega, J. M. Millam, M. Klene, J. E. Knox, J. B. Cross, 
 V. Bakken, C. Adamo, J. Jaramillo, R. Gomperts, R. E. Stratmann, 
 O. Yazyev, A. J. Austin, R. Cammi, C. Pomelli, J. W. Ochterski, 
 R. L. Martin, K. Morokuma, V. G. Zakrzewski, G. A. Voth, 
 P. Salvador, J. J. Dannenberg, S. Dapprich, A. D. Daniels, 
 O. Farkas, J. B. Foresman, J. V. Ortiz, J. Cioslowski, 
 and D. J. Fox, Gaussian, Inc., Wallingford CT, 2013.
 
 ******************************************
 Gaussian 09:  EM64L-G09RevD.01 24-Apr-2013
                27-Aug-2020 
 ******************************************
 %LindaWorkers=cib48-3
 %NProcShared=20
 Will use up to   20 processors via shared memory.
 %mem=16GB
 SetLPE:  input flags=""
 SetLPE:    new flags=" -nodelist 'cib48-3.ibnet'"
 Will use up to    1 processors via Linda.
 -----------------------------------------------
 #p b3lyp/6-311+g(2d,2p) empiricaldispersion=gd3
 -----------------------------------------------
 1/38=1/1;
 2/12=2,17=6,18=5,40=1/2;
 3/5=4,6=6,7=212,11=2,16=1,25=1,30=1,74=-5,124=31/1,2,3;
 4//1;
 5/5=2,38=5/2;
 6/7=2,8=2,9=2,10=2,28=1/1;
 99/5=1,9=1/99;
 Leave Link    1 at Thu Aug 27 17:20:57 2020, MaxMem=  2147483648 cpu:         1.2
 (Enter /global/apps/Gaussian/09.d01/l101.exe)
 -------------------
 Title Card Required
 -------------------
 Symbolic Z-matrix:
 Charge = -1 Multiplicity = 1
 C                    -4.02138   3.70179  -0.97233 
 C                    -2.67958   3.81072  -0.24643 
 N                    -4.58513   2.46742  -1.06047 
 C                    -2.33943   2.76139   0.81667 
 H                    -1.89211   3.79542  -1.01115 
 H                    -2.66776   4.81238   0.1955 
 O                    -4.5456    4.69284  -1.4808 
 C                    -5.83429   2.28515  -1.78125 
 H                    -4.12583   1.66532  -0.64892 
 H                    -1.44351   3.08857   1.36116 
 O                    -2.11445   1.48601   0.23893 
 H                    -3.16073   2.70288   1.54897 
 H                    -5.78716   2.79104  -2.74994 
 H                    -6.68546   2.70352  -1.23051 
 H                    -5.99272   1.21471  -1.92718 
 C                    -3.07739  -0.72103  -1.2445 
 C                    -2.7251   -0.07451  -2.55465 
 O                    -2.00035  -1.25034  -0.66044 
 O                    -4.19899  -0.72463  -0.7535 
 H                    -1.94937  -0.63876  -3.07555 
 H                    -3.61606   0.03504  -3.17254 
 H                    -2.32794   0.91465  -2.30644 
 C                    -2.13447  -1.63055   0.7212 
 H                    -1.11965  -1.83258   1.06122 
 H                    -2.56503  -0.7984    1.28128 
 H                    -2.76029  -2.52191   0.81729 
 N                     0.45486   0.93432   1.02925 
 C                     1.44073   1.47697   0.32195 
 C                     1.08388   0.3334    2.10512 
 N                     2.65053   1.25347   0.87992 
 H                     1.31323   2.02934  -0.59824 
 C                     2.45071   0.52083   2.03131 
 H                     0.52386  -0.1926    2.86639 
 C                     3.58199   0.05491   2.90576 
 C                     4.4363    1.1863    3.52477 
 H                     3.15007  -0.56044   3.70413 
 H                     4.24034  -0.60811   2.32877 
 H                     5.24561   0.76104   4.12709 
 H                     3.82846   1.83439   4.1658 
 H                     4.87739   1.80139   2.73444 
 C                    -7.73944  -1.06557   0.24901 
 C                    -7.25287  -2.29214   1.00876 
 H                    -6.94015  -0.52621  -0.26596 
 H                    -8.23303  -0.39151   0.95488 
 H                    -8.49158  -1.38435  -0.47775 
 N                    -5.90633  -2.4982    0.97571 
 O                    -8.03999  -3.02662   1.60346 
 C                    -5.29379  -3.6277    1.64559 
 H                    -5.31028  -1.85986   0.457 
 H                    -6.09099  -4.22627   2.08858 
 H                    -4.6116   -3.30157   2.44064 
 H                    -4.72942  -4.24879   0.93926 
 C                     5.85555   1.26331  -0.06608 
 C                     7.34858   1.6138    0.03972 
 O                     5.0438    2.1787    0.24929 
 O                     5.54742   0.08619  -0.41577 
 C                     8.2641    0.75312  -0.83007 
 H                     7.61687   1.4959    1.09925 
 H                     7.45879   2.68026  -0.18241 
 H                     9.31948   1.00204  -0.66964 
 H                     8.04012   0.8939   -1.89303 
 H                     8.11422  -0.30605  -0.60635 
 N                     3.59945  -1.85119  -1.23922 
 C                     2.16218  -1.89744  -1.03492 
 C                     4.19332  -2.71313  -2.11913 
 H                     4.1165   -1.01743  -0.94362 
 H                     1.91048  -1.37317  -0.11007 
 H                     1.60604  -1.43158  -1.85982 
 H                     1.84004  -2.93913  -0.96979 
 C                     5.69524  -2.52608  -2.28299 
 O                     3.5725   -3.60928  -2.691 
 H                     5.95702  -1.47178  -2.40525 
 H                     6.197    -2.86046  -1.36844 
 H                     6.033    -3.11797  -3.13413 
 O                     5.72901  -2.20543   1.10317 
 H                     4.90158  -2.48983   0.68911 
 H                     5.88006  -1.35607   0.63855 
 H                     3.59747   1.60414   0.53279 
 H                    -1.19642   1.18764   0.50627 
 
 NAtoms=     79 NQM=       79 NQMF=       0 NMMI=      0 NMMIF=      0
                NMic=       0 NMicF=      0.
                    Isotopes and Nuclear Properties:
 (Nuclear quadrupole moments (NQMom) in fm**2, nuclear magnetic moments (NMagM)
  in nuclear magnetons)

  Atom         1           2           3           4           5           6           7           8           9          10
 IAtWgt=          12          12          14          12           1           1          16          12           1           1
 AtmWgt=  12.0000000  12.0000000  14.0030740  12.0000000   1.0078250   1.0078250  15.9949146  12.0000000   1.0078250   1.0078250
 NucSpn=           0           0           2           0           1           1           0           0           1           1
 AtZEff=   0.0000000   0.0000000   0.0000000   0.0000000   0.0000000   0.0000000   0.0000000   0.0000000   0.0000000   0.0000000
 NQMom=    0.0000000   0.0000000   2.0440000   0.0000000   0.0000000   0.0000000   0.0000000   0.0000000   0.0000000   0.0000000
 NMagM=    0.0000000   0.0000000   0.4037610   0.0000000   2.7928460   2.7928460   0.0000000   0.0000000   2.7928460   2.7928460
 AtZNuc=   6.0000000   6.0000000   7.0000000   6.0000000   1.0000000   1.0000000   8.0000000   6.0000000   1.0000000   1.0000000

  Atom        11          12          13          14          15          16          17          18          19          20
 IAtWgt=          16           1           1           1           1          12          12          16          16           1
 AtmWgt=  15.9949146   1.0078250   1.0078250   1.0078250   1.0078250  12.0000000  12.0000000  15.9949146  15.9949146   1.0078250
 NucSpn=           0           1           1           1           1           0           0           0           0           1
 AtZEff=   0.0000000   0.0000000   0.0000000   0.0000000   0.0000000   0.0000000   0.0000000   0.0000000   0.0000000   0.0000000
 NQMom=    0.0000000   0.0000000   0.0000000   0.0000000   0.0000000   0.0000000   0.0000000   0.0000000   0.0000000   0.0000000
 NMagM=    0.0000000   2.7928460   2.7928460   2.7928460   2.7928460   0.0000000   0.0000000   0.0000000   0.0000000   2.7928460
 AtZNuc=   8.0000000   1.0000000   1.0000000   1.0000000   1.0000000   6.0000000   6.0000000   8.0000000   8.0000000   1.0000000

  Atom        21          22          23          24          25          26          27          28          29          30
 IAtWgt=           1           1          12           1           1           1          14          12          12          14
 AtmWgt=   1.0078250   1.0078250  12.0000000   1.0078250   1.0078250   1.0078250  14.0030740  12.0000000  12.0000000  14.0030740
 NucSpn=           1           1           0           1           1           1           2           0           0           2
 AtZEff=   0.0000000   0.0000000   0.0000000   0.0000000   0.0000000   0.0000000   0.0000000   0.0000000   0.0000000   0.0000000
 NQMom=    0.0000000   0.0000000   0.0000000   0.0000000   0.0000000   0.0000000   2.0440000   0.0000000   0.0000000   2.0440000
 NMagM=    2.7928460   2.7928460   0.0000000   2.7928460   2.7928460   2.7928460   0.4037610   0.0000000   0.0000000   0.4037610
 AtZNuc=   1.0000000   1.0000000   6.0000000   1.0000000   1.0000000   1.0000000   7.0000000   6.0000000   6.0000000   7.0000000

  Atom        31          32          33          34          35          36          37          38          39          40
 IAtWgt=           1          12           1          12          12           1           1           1           1           1
 AtmWgt=   1.0078250  12.0000000   1.0078250  12.0000000  12.0000000   1.0078250   1.0078250   1.0078250   1.0078250   1.0078250
 NucSpn=           1           0           1           0           0           1           1           1           1           1
 AtZEff=   0.0000000   0.0000000   0.0000000   0.0000000   0.0000000   0.0000000   0.0000000   0.0000000   0.0000000   0.0000000
 NQMom=    0.0000000   0.0000000   0.0000000   0.0000000   0.0000000   0.0000000   0.0000000   0.0000000   0.0000000   0.0000000
 NMagM=    2.7928460   0.0000000   2.7928460   0.0000000   0.0000000   2.7928460   2.7928460   2.7928460   2.7928460   2.7928460
 AtZNuc=   1.0000000   6.0000000   1.0000000   6.0000000   6.0000000   1.0000000   1.0000000   1.0000000   1.0000000   1.0000000

  Atom        41          42          43          44          45          46          47          48          49          50
 IAtWgt=          12          12           1           1           1          14          16          12           1           1
 AtmWgt=  12.0000000  12.0000000   1.0078250   1.0078250   1.0078250  14.0030740  15.9949146  12.0000000   1.0078250   1.0078250
 NucSpn=           0           0           1           1           1           2           0           0           1           1
 AtZEff=   0.0000000   0.0000000   0.0000000   0.0000000   0.0000000   0.0000000   0.0000000   0.0000000   0.0000000   0.0000000
 NQMom=    0.0000000   0.0000000   0.0000000   0.0000000   0.0000000   2.0440000   0.0000000   0.0000000   0.0000000   0.0000000
 NMagM=    0.0000000   0.0000000   2.7928460   2.7928460   2.7928460   0.4037610   0.0000000   0.0000000   2.7928460   2.7928460
 AtZNuc=   6.0000000   6.0000000   1.0000000   1.0000000   1.0000000   7.0000000   8.0000000   6.0000000   1.0000000   1.0000000

  Atom        51          52          53          54          55          56          57          58          59          60
 IAtWgt=           1           1          12          12          16          16          12           1           1           1
 AtmWgt=   1.0078250   1.0078250  12.0000000  12.0000000  15.9949146  15.9949146  12.0000000   1.0078250   1.0078250   1.0078250
 NucSpn=           1           1           0           0           0           0           0           1           1           1
 AtZEff=   0.0000000   0.0000000   0.0000000   0.0000000   0.0000000   0.0000000   0.0000000   0.0000000   0.0000000   0.0000000
 NQMom=    0.0000000   0.0000000   0.0000000   0.0000000   0.0000000   0.0000000   0.0000000   0.0000000   0.0000000   0.0000000
 NMagM=    2.7928460   2.7928460   0.0000000   0.0000000   0.0000000   0.0000000   0.0000000   2.7928460   2.7928460   2.7928460
 AtZNuc=   1.0000000   1.0000000   6.0000000   6.0000000   8.0000000   8.0000000   6.0000000   1.0000000   1.0000000   1.0000000

  Atom        61          62          63          64          65          66          67          68          69          70
 IAtWgt=           1           1          14          12          12           1           1           1           1          12
 AtmWgt=   1.0078250   1.0078250  14.0030740  12.0000000  12.0000000   1.0078250   1.0078250   1.0078250   1.0078250  12.0000000
 NucSpn=           1           1           2           0           0           1           1           1           1           0
 AtZEff=   0.0000000   0.0000000   0.0000000   0.0000000   0.0000000   0.0000000   0.0000000   0.0000000   0.0000000   0.0000000
 NQMom=    0.0000000   0.0000000   2.0440000   0.0000000   0.0000000   0.0000000   0.0000000   0.0000000   0.0000000   0.0000000
 NMagM=    2.7928460   2.7928460   0.4037610   0.0000000   0.0000000   2.7928460   2.7928460   2.7928460   2.7928460   0.0000000
 AtZNuc=   1.0000000   1.0000000   7.0000000   6.0000000   6.0000000   1.0000000   1.0000000   1.0000000   1.0000000   6.0000000

  Atom        71          72          73          74          75          76          77          78          79
 IAtWgt=          16           1           1           1          16           1           1           1           1
 AtmWgt=  15.9949146   1.0078250   1.0078250   1.0078250  15.9949146   1.0078250   1.0078250   1.0078250   1.0078250
 NucSpn=           0           1           1           1           0           1           1           1           1
 AtZEff=   0.0000000   0.0000000   0.0000000   0.0000000   0.0000000   0.0000000   0.0000000   0.0000000   0.0000000
 NQMom=    0.0000000   0.0000000   0.0000000   0.0000000   0.0000000   0.0000000   0.0000000   0.0000000   0.0000000
 NMagM=    0.0000000   2.7928460   2.7928460   2.7928460   0.0000000   2.7928460   2.7928460   2.7928460   2.7928460
 AtZNuc=   8.0000000   1.0000000   1.0000000   1.0000000   8.0000000   1.0000000   1.0000000   1.0000000   1.0000000
 Leave Link  101 at Thu Aug 27 17:20:57 2020, MaxMem=  2147483648 cpu:         2.9
 (Enter /global/apps/Gaussian/09.d01/l202.exe)
 Stoichiometry    C21H44N5O9(1-)
 Framework group  C1[X(C21H44N5O9)]
 Deg. of freedom   231
 Full point group                 C1      NOp   1
 Largest Abelian subgroup         C1      NOp   1
 Largest concise Abelian subgroup C1      NOp   1
                         Standard orientation:                         
 ---------------------------------------------------------------------
 Center     Atomic      Atomic             Coordinates (Angstroms)
 Number     Number       Type             X           Y           Z
 ---------------------------------------------------------------------
      1          6           0       -4.021380    3.701793   -0.972326
      2          6           0       -2.679576    3.810718   -0.246430
      3          7           0       -4.585129    2.467418   -1.060470
      4          6           0       -2.339431    2.761389    0.816666
      5          1           0       -1.892109    3.795420   -1.011149
      6          1           0       -2.667762    4.812380    0.195497
      7          8           0       -4.545604    4.692843   -1.480802
      8          6           0       -5.834293    2.285146   -1.781246
      9          1           0       -4.125832    1.665321   -0.648922
     10          1           0       -1.443509    3.088567    1.361159
     11          8           0       -2.114455    1.486007    0.238930
     12          1           0       -3.160730    2.702875    1.548969
     13          1           0       -5.787158    2.791040   -2.749939
     14          1           0       -6.685462    2.703522   -1.230512
     15          1           0       -5.992720    1.214712   -1.927182
     16          6           0       -3.077388   -0.721033   -1.244498
     17          6           0       -2.725096   -0.074509   -2.554647
     18          8           0       -2.000349   -1.250342   -0.660441
     19          8           0       -4.198985   -0.724626   -0.753499
     20          1           0       -1.949374   -0.638760   -3.075547
     21          1           0       -3.616062    0.035035   -3.172539
     22          1           0       -2.327940    0.914654   -2.306435
     23          6           0       -2.134470   -1.630546    0.721197
     24          1           0       -1.119650   -1.832579    1.061224
     25          1           0       -2.565035   -0.798400    1.281281
     26          1           0       -2.760294   -2.521909    0.817292
     27          7           0        0.454861    0.934315    1.029250
     28          6           0        1.440730    1.476970    0.321949
     29          6           0        1.083876    0.333401    2.105120
     30          7           0        2.650529    1.253467    0.879921
     31          1           0        1.313232    2.029337   -0.598244
     32          6           0        2.450712    0.520827    2.031313
     33          1           0        0.523860   -0.192601    2.866387
     34          6           0        3.581988    0.054910    2.905757
     35          6           0        4.436302    1.186304    3.524775
     36          1           0        3.150074   -0.560442    3.704130
     37          1           0        4.240337   -0.608114    2.328766
     38          1           0        5.245606    0.761042    4.127092
     39          1           0        3.828456    1.834389    4.165799
     40          1           0        4.877388    1.801389    2.734444
     41          6           0       -7.739444   -1.065571    0.249007
     42          6           0       -7.252874   -2.292137    1.008760
     43          1           0       -6.940145   -0.526213   -0.265960
     44          1           0       -8.233029   -0.391508    0.954881
     45          1           0       -8.491576   -1.384348   -0.477749
     46          7           0       -5.906328   -2.498200    0.975708
     47          8           0       -8.039988   -3.026624    1.603461
     48          6           0       -5.293786   -3.627697    1.645594
     49          1           0       -5.310282   -1.859859    0.457004
     50          1           0       -6.090989   -4.226272    2.088577
     51          1           0       -4.611603   -3.301572    2.440635
     52          1           0       -4.729419   -4.248790    0.939257
     53          6           0        5.855546    1.263313   -0.066075
     54          6           0        7.348580    1.613795    0.039723
     55          8           0        5.043804    2.178700    0.249294
     56          8           0        5.547424    0.086185   -0.415765
     57          6           0        8.264096    0.753120   -0.830067
     58          1           0        7.616871    1.495897    1.099247
     59          1           0        7.458789    2.680260   -0.182407
     60          1           0        9.319479    1.002035   -0.669642
     61          1           0        8.040123    0.893895   -1.893025
     62          1           0        8.114224   -0.306048   -0.606348
     63          7           0        3.599445   -1.851192   -1.239215
     64          6           0        2.162179   -1.897442   -1.034918
     65          6           0        4.193315   -2.713134   -2.119129
     66          1           0        4.116504   -1.017430   -0.943616
     67          1           0        1.910482   -1.373172   -0.110070
     68          1           0        1.606041   -1.431575   -1.859820
     69          1           0        1.840039   -2.939130   -0.969788
     70          6           0        5.695244   -2.526081   -2.282989
     71          8           0        3.572497   -3.609283   -2.691000
     72          1           0        5.957017   -1.471778   -2.405254
     73          1           0        6.196998   -2.860464   -1.368441
     74          1           0        6.032999   -3.117968   -3.134128
     75          8           0        5.729014   -2.205434    1.103169
     76          1           0        4.901576   -2.489827    0.689111
     77          1           0        5.880055   -1.356072    0.638551
     78          1           0        3.597474    1.604136    0.532793
     79          1           0       -1.196424    1.187639    0.506273
 ---------------------------------------------------------------------
 Rotational constants (GHZ):      0.1388772      0.0403934      0.0365788
 Leave Link  202 at Thu Aug 27 17:20:58 2020, MaxMem=  2147483648 cpu:         1.3
 (Enter /global/apps/Gaussian/09.d01/l301.exe)
 Standard basis: 6-311+G(2d,2p) (5D, 7F)
 Ernie: Thresh=  0.10000D-02 Tol=  0.10000D-05 Strict=F.
 There are  1411 symmetry adapted cartesian basis functions of A   symmetry.
 There are  1341 symmetry adapted basis functions of A   symmetry.
  1341 basis functions,  1954 primitive gaussians,  1411 cartesian basis functions
   139 alpha electrons      139 beta electrons
       nuclear repulsion energy      3934.1217900801 Hartrees.
 IExCor=  402 DFT=T Ex+Corr=B3LYP ExCW=0 ScaHFX=  0.200000
 ScaDFX=  0.800000  0.720000  1.000000  0.810000 ScalE2=  1.000000  1.000000
 IRadAn=      0 IRanWt=     -1 IRanGd=            0 ICorTp=0 IEmpDi=131
 NAtoms=   79 NActive=   79 NUniq=   79 SFac= 1.00D+00 NAtFMM=   60 NAOKFM=T Big=T
 Integral buffers will be    131072 words long.
 Raffenetti 2 integral format.
 Two-electron integral symmetry is turned on.
 R6Disp:  Grimme-D3 Dispersion energy=       -0.0884158490 Hartrees.
 Nuclear repulsion after empirical dispersion term =     3934.0333742311 Hartrees.
 Leave Link  301 at Thu Aug 27 17:20:58 2020, MaxMem=  2147483648 cpu:         2.2
 (Enter /global/apps/Gaussian/09.d01/l302.exe)
 NPDir=0 NMtPBC=     1 NCelOv=     1 NCel=       1 NClECP=     1 NCelD=      1
         NCelK=      1 NCelE2=     1 NClLst=     1 CellRange=     0.0.
 One-electron integrals computed using PRISM.
 NBasis=  1341 RedAO= T EigKep=  1.52D-06  NBF=  1341
 NBsUse=  1341 1.00D-06 EigRej= -1.00D+00 NBFU=  1341
 Precomputing XC quadrature grid using
 IXCGrd= 4 IRadAn=           0 IRanWt=          -1 IRanGd=           0 AccXCQ= 0.00D+00.
 Generated NRdTot=       0 NPtTot=           0 NUsed=           0 NTot=          32
 NSgBfM=  1226  1228  1232  1232  1235 MxSgAt=    79 MxSgA2=    79.
 Leave Link  302 at Thu Aug 27 17:21:03 2020, MaxMem=  2147483648 cpu:        94.6
 (Enter /global/apps/Gaussian/09.d01/l303.exe)
 DipDrv:  MaxL=1.
 Leave Link  303 at Thu Aug 27 17:21:04 2020, MaxMem=  2147483648 cpu:         7.3
 (Enter /global/apps/Gaussian/09.d01/l401.exe)
 ExpMin= 4.38D-02 ExpMax= 8.59D+03 ExpMxC= 1.30D+03 IAcc=2 IRadAn=         4 AccDes= 0.00D+00
 Harris functional with IExCor=  402 and IRadAn=       4 diagonalized for initial guess.
 HarFok:  IExCor=  402 AccDes= 0.00D+00 IRadAn=         4 IDoV= 1 UseB2=F ITyADJ=14
 ICtDFT=  3500011 ScaDFX=  1.000000  1.000000  1.000000  1.000000
 FoFCou: FMM=F IPFlag=           0 FMFlag=      100000 FMFlg1=        2001
         NFxFlg=           0 DoJE=T BraDBF=F KetDBF=T FulRan=T
         wScrn=  0.000000 ICntrl=     500 IOpCl=  0 I1Cent=   200000004 NGrid=           0
         NMat0=    1 NMatS0=      1 NMatT0=    0 NMatD0=    1 NMtDS0=    0 NMtDT0=    0
 Petite list used in FoFCou.
 Harris En= -1778.74613368097    
 JPrj=0 DoOrth=F DoCkMO=F.
 Leave Link  401 at Thu Aug 27 17:21:12 2020, MaxMem=  2147483648 cpu:       147.4
 (Enter /global/apps/Gaussian/09.d01/l502.exe)
 Closed shell SCF:
 Using DIIS extrapolation, IDIIS=  1040.
 Integral symmetry usage will be decided dynamically.
 IVT=     6029963 IEndB=     6029963 NGot=  2147483648 MDV=  2143462658
 LenX=  2143462658 LenY=  2141470326
 Requested convergence on RMS density matrix=1.00D-08 within 128 cycles.
 Requested convergence on MAX density matrix=1.00D-06.
 Requested convergence on             energy=1.00D-06.
 No special actions if energy rises.
 Fock matrices will be formed incrementally for  20 cycles.

 Cycle   1  Pass 1  IDiag  1:
 FoFJK:  IHMeth= 1 ICntrl=       0 DoSepK=F KAlg= 0 I1Cent=   0 FoldK=F
 IRaf= 650000000 NMat=   1 IRICut=       1 DoRegI=T DoRafI=F ISym2E= 0.
 FoFCou: FMM=T IPFlag=           0 FMFlag=      100000 FMFlg1=        2001
         NFxFlg=           0 DoJE=F BraDBF=F KetDBF=F FulRan=T
         wScrn=  0.000000 ICntrl=       0 IOpCl=  0 I1Cent=           0 NGrid=           0
         NMat0=    1 NMatS0=      1 NMatT0=    0 NMatD0=    1 NMtDS0=    0 NMtDT0=    0
 Symmetry not used in FoFCou.
 FMM levels:  10  Number of levels for PrismC:   9
 E= -1777.16339814945    
 DIIS: error= 2.16D-02 at cycle   1 NSaved=   1.
 NSaved= 1 IEnMin= 1 EnMin= -1777.16339814945     IErMin= 1 ErrMin= 2.16D-02
 ErrMax= 2.16D-02  0.00D+00 EMaxC= 1.00D-01 BMatC= 1.64D+00 BMatP= 1.64D+00
 IDIUse=3 WtCom= 7.84D-01 WtEn= 2.16D-01
 Coeff-Com:  0.100D+01
 Coeff-En:   0.100D+01
 Coeff:      0.100D+01
 Gap=     0.145 Goal=   None    Shift=    0.000
 GapD=    0.145 DampG=1.000 DampE=0.500 DampFc=0.5000 IDamp=-1.
 Damping current iteration by 5.00D-01
 RMSDP=6.05D-03 MaxDP=2.71D+00              OVMax= 2.99D-01

 Cycle   2  Pass 1  IDiag  1:
 RMSU=  3.02D-03    CP:  9.79D-01
 E= -1777.55705672506     Delta-E=       -0.393658575606 Rises=F Damp=T
 DIIS: error= 7.53D-03 at cycle   2 NSaved=   2.
 NSaved= 2 IEnMin= 2 EnMin= -1777.55705672506     IErMin= 2 ErrMin= 7.53D-03
 ErrMax= 7.53D-03  0.00D+00 EMaxC= 1.00D-01 BMatC= 1.84D-01 BMatP= 1.64D+00
 IDIUse=3 WtCom= 9.25D-01 WtEn= 7.53D-02
 Coeff-Com:  0.183D+00 0.817D+00
 Coeff-En:   0.314D+00 0.686D+00
 Coeff:      0.193D+00 0.807D+00
 Gap=     0.236 Goal=   None    Shift=    0.000
 RMSDP=2.76D-03 MaxDP=1.32D+00 DE=-3.94D-01 OVMax= 1.94D-01

 Cycle   3  Pass 1  IDiag  1:
 RMSU=  1.10D-03    CP:  8.57D-01  2.71D-01
 E= -1778.29504427949     Delta-E=       -0.737987554437 Rises=F Damp=F
 DIIS: error= 1.17D-02 at cycle   3 NSaved=   3.
 NSaved= 3 IEnMin= 3 EnMin= -1778.29504427949     IErMin= 2 ErrMin= 7.53D-03
 ErrMax= 1.17D-02  0.00D+00 EMaxC= 1.00D-01 BMatC= 1.86D-01 BMatP= 1.84D-01
 IDIUse=3 WtCom= 8.83D-01 WtEn= 1.17D-01
 Coeff-Com:  0.523D-01 0.505D+00 0.443D+00
 Coeff-En:   0.000D+00 0.000D+00 0.100D+01
 Coeff:      0.462D-01 0.446D+00 0.508D+00
 Gap=     0.205 Goal=   None    Shift=    0.000
 RMSDP=4.48D-04 MaxDP=1.03D-01 DE=-7.38D-01 OVMax= 1.14D-01

 Cycle   4  Pass 1  IDiag  1:
 RMSU=  4.04D-04    CP:  8.43D-01  3.11D-01  9.47D-01
 E= -1778.41078338967     Delta-E=       -0.115739110174 Rises=F Damp=F
 DIIS: error= 5.95D-03 at cycle   4 NSaved=   4.
 NSaved= 4 IEnMin= 4 EnMin= -1778.41078338967     IErMin= 4 ErrMin= 5.95D-03
 ErrMax= 5.95D-03  0.00D+00 EMaxC= 1.00D-01 BMatC= 3.84D-02 BMatP= 1.84D-01
 IDIUse=3 WtCom= 9.40D-01 WtEn= 5.95D-02
 Coeff-Com: -0.195D-02 0.123D+00 0.327D+00 0.552D+00
 Coeff-En:   0.000D+00 0.000D+00 0.207D+00 0.793D+00
 Coeff:     -0.184D-02 0.116D+00 0.319D+00 0.567D+00
 Gap=     0.212 Goal=   None    Shift=    0.000
 RMSDP=2.67D-04 MaxDP=1.13D-01 DE=-1.16D-01 OVMax= 4.40D-02

 Cycle   5  Pass 1  IDiag  1:
 RMSU=  1.55D-04    CP:  8.28D-01  2.91D-01  1.02D+00  7.24D-01
 E= -1778.43824244124     Delta-E=       -0.027459051573 Rises=F Damp=F
 DIIS: error= 1.28D-03 at cycle   5 NSaved=   5.
 NSaved= 5 IEnMin= 5 EnMin= -1778.43824244124     IErMin= 5 ErrMin= 1.28D-03
 ErrMax= 1.28D-03  0.00D+00 EMaxC= 1.00D-01 BMatC= 3.24D-03 BMatP= 3.84D-02
 IDIUse=3 WtCom= 9.87D-01 WtEn= 1.28D-02
 Coeff-Com: -0.528D-02 0.310D-01 0.152D+00 0.349D+00 0.474D+00
 Coeff-En:   0.000D+00 0.000D+00 0.000D+00 0.207D-01 0.979D+00
 Coeff:     -0.521D-02 0.306D-01 0.150D+00 0.344D+00 0.480D+00
 Gap=     0.195 Goal=   None    Shift=    0.000
 RMSDP=5.84D-05 MaxDP=1.36D-02 DE=-2.75D-02 OVMax= 1.08D-02

 Cycle   6  Pass 1  IDiag  1:
 RMSU=  4.10D-05    CP:  8.29D-01  2.88D-01  1.01D+00  7.43D-01  7.64D-01
 E= -1778.44066479759     Delta-E=       -0.002422356346 Rises=F Damp=F
 DIIS: error= 1.88D-04 at cycle   6 NSaved=   6.
 NSaved= 6 IEnMin= 6 EnMin= -1778.44066479759     IErMin= 6 ErrMin= 1.88D-04
 ErrMax= 1.88D-04  0.00D+00 EMaxC= 1.00D-01 BMatC= 1.51D-04 BMatP= 3.24D-03
 IDIUse=3 WtCom= 9.98D-01 WtEn= 1.88D-03
 Coeff-Com: -0.222D-02 0.299D-02 0.404D-01 0.110D+00 0.240D+00 0.609D+00
 Coeff-En:   0.000D+00 0.000D+00 0.000D+00 0.000D+00 0.000D+00 0.100D+01
 Coeff:     -0.222D-02 0.299D-02 0.403D-01 0.110D+00 0.239D+00 0.610D+00
 Gap=     0.196 Goal=   None    Shift=    0.000
 RMSDP=1.81D-05 MaxDP=3.70D-03 DE=-2.42D-03 OVMax= 2.42D-03

 Cycle   7  Pass 1  IDiag  1:
 RMSU=  1.20D-05    CP:  8.29D-01  2.86D-01  1.01D+00  7.52D-01  7.58D-01
                    CP:  7.51D-01
 E= -1778.44075908839     Delta-E=       -0.000094290800 Rises=F Damp=F
 DIIS: error= 9.34D-05 at cycle   7 NSaved=   7.
 NSaved= 7 IEnMin= 7 EnMin= -1778.44075908839     IErMin= 7 ErrMin= 9.34D-05
 ErrMax= 9.34D-05  0.00D+00 EMaxC= 1.00D-01 BMatC= 2.91D-05 BMatP= 1.51D-04
 IDIUse=1 WtCom= 1.00D+00 WtEn= 0.00D+00
 Coeff-Com: -0.949D-03-0.357D-03 0.156D-01 0.463D-01 0.123D+00 0.389D+00
 Coeff-Com:  0.427D+00
 Coeff:     -0.949D-03-0.357D-03 0.156D-01 0.463D-01 0.123D+00 0.389D+00
 Coeff:      0.427D+00
 Gap=     0.196 Goal=   None    Shift=    0.000
 RMSDP=6.35D-06 MaxDP=2.08D-03 DE=-9.43D-05 OVMax= 1.28D-03

 Cycle   8  Pass 1  IDiag  1:
 RMSU=  5.49D-06    CP:  8.29D-01  2.86D-01  1.02D+00  7.51D-01  7.53D-01
                    CP:  7.46D-01  8.27D-01
 E= -1778.44077840773     Delta-E=       -0.000019319345 Rises=F Damp=F
 DIIS: error= 2.35D-05 at cycle   8 NSaved=   8.
 NSaved= 8 IEnMin= 8 EnMin= -1778.44077840773     IErMin= 8 ErrMin= 2.35D-05
 ErrMax= 2.35D-05  0.00D+00 EMaxC= 1.00D-01 BMatC= 2.26D-06 BMatP= 2.91D-05
 IDIUse=1 WtCom= 1.00D+00 WtEn= 0.00D+00
 Coeff-Com: -0.773D-04-0.658D-03 0.254D-02 0.807D-02 0.316D-01 0.118D+00
 Coeff-Com:  0.242D+00 0.598D+00
 Coeff:     -0.773D-04-0.658D-03 0.254D-02 0.807D-02 0.316D-01 0.118D+00
 Coeff:      0.242D+00 0.598D+00
 Gap=     0.196 Goal=   None    Shift=    0.000
 RMSDP=2.89D-06 MaxDP=8.73D-04 DE=-1.93D-05 OVMax= 4.31D-04

 Cycle   9  Pass 1  IDiag  1:
 RMSU=  1.84D-06    CP:  8.29D-01  2.85D-01  1.02D+00  7.51D-01  7.60D-01
                    CP:  7.58D-01  8.32D-01  7.98D-01
 E= -1778.44077984445     Delta-E=       -0.000001436715 Rises=F Damp=F
 DIIS: error= 1.40D-05 at cycle   9 NSaved=   9.
 NSaved= 9 IEnMin= 9 EnMin= -1778.44077984445     IErMin= 9 ErrMin= 1.40D-05
 ErrMax= 1.40D-05  0.00D+00 EMaxC= 1.00D-01 BMatC= 3.88D-07 BMatP= 2.26D-06
 IDIUse=1 WtCom= 1.00D+00 WtEn= 0.00D+00
 Coeff-Com:  0.714D-04-0.353D-03-0.111D-03-0.209D-03 0.608D-02 0.286D-01
 Coeff-Com:  0.987D-01 0.371D+00 0.496D+00
 Coeff:      0.714D-04-0.353D-03-0.111D-03-0.209D-03 0.608D-02 0.286D-01
 Coeff:      0.987D-01 0.371D+00 0.496D+00
 Gap=     0.196 Goal=   None    Shift=    0.000
 RMSDP=1.01D-06 MaxDP=3.82D-04 DE=-1.44D-06 OVMax= 1.33D-04

 Cycle  10  Pass 1  IDiag  1:
 RMSU=  5.89D-07    CP:  8.29D-01  2.85D-01  1.02D+00  7.51D-01  7.61D-01
                    CP:  7.57D-01  8.41D-01  8.13D-01  7.13D-01
 E= -1778.44078013854     Delta-E=       -0.000000294097 Rises=F Damp=F
 DIIS: error= 3.20D-06 at cycle  10 NSaved=  10.
 NSaved=10 IEnMin=10 EnMin= -1778.44078013854     IErMin=10 ErrMin= 3.20D-06
 ErrMax= 3.20D-06  0.00D+00 EMaxC= 1.00D-01 BMatC= 2.22D-08 BMatP= 3.88D-07
 IDIUse=1 WtCom= 1.00D+00 WtEn= 0.00D+00
 Coeff-Com:  0.417D-04-0.140D-03-0.250D-03-0.717D-03 0.921D-03 0.590D-02
 Coeff-Com:  0.321D-01 0.151D+00 0.266D+00 0.546D+00
 Coeff:      0.417D-04-0.140D-03-0.250D-03-0.717D-03 0.921D-03 0.590D-02
 Coeff:      0.321D-01 0.151D+00 0.266D+00 0.546D+00
 Gap=     0.196 Goal=   None    Shift=    0.000
 RMSDP=3.18D-07 MaxDP=1.40D-04 DE=-2.94D-07 OVMax= 3.46D-05

 Cycle  11  Pass 1  IDiag  1:
 RMSU=  1.94D-07    CP:  8.29D-01  2.85D-01  1.02D+00  7.51D-01  7.61D-01
                    CP:  7.56D-01  8.48D-01  8.25D-01  7.17D-01  7.96D-01
 E= -1778.44078015319     Delta-E=       -0.000000014651 Rises=F Damp=F
 DIIS: error= 8.00D-07 at cycle  11 NSaved=  11.
 NSaved=11 IEnMin=11 EnMin= -1778.44078015319     IErMin=11 ErrMin= 8.00D-07
 ErrMax= 8.00D-07  0.00D+00 EMaxC= 1.00D-01 BMatC= 2.65D-09 BMatP= 2.22D-08
 IDIUse=1 WtCom= 1.00D+00 WtEn= 0.00D+00
 Coeff-Com:  0.120D-04-0.306D-04-0.121D-03-0.354D-03-0.163D-03-0.141D-03
 Coeff-Com:  0.524D-02 0.363D-01 0.846D-01 0.297D+00 0.578D+00
 Coeff:      0.120D-04-0.306D-04-0.121D-03-0.354D-03-0.163D-03-0.141D-03
 Coeff:      0.524D-02 0.363D-01 0.846D-01 0.297D+00 0.578D+00
 Gap=     0.196 Goal=   None    Shift=    0.000
 RMSDP=7.87D-08 MaxDP=1.56D-05 DE=-1.47D-08 OVMax= 1.46D-05

 Cycle  12  Pass 1  IDiag  1:
 RMSU=  5.63D-08    CP:  8.29D-01  2.85D-01  1.02D+00  7.51D-01  7.60D-01
                    CP:  7.56D-01  8.49D-01  8.30D-01  7.17D-01  8.14D-01
                    CP:  7.86D-01
 E= -1778.44078015481     Delta-E=       -0.000000001618 Rises=F Damp=F
 DIIS: error= 4.78D-07 at cycle  12 NSaved=  12.
 NSaved=12 IEnMin=12 EnMin= -1778.44078015481     IErMin=12 ErrMin= 4.78D-07
 ErrMax= 4.78D-07  0.00D+00 EMaxC= 1.00D-01 BMatC= 6.00D-10 BMatP= 2.65D-09
 IDIUse=1 WtCom= 1.00D+00 WtEn= 0.00D+00
 Coeff-Com:  0.239D-05-0.411D-05-0.491D-04-0.143D-03-0.169D-03-0.665D-03
 Coeff-Com: -0.620D-04 0.721D-02 0.265D-01 0.131D+00 0.374D+00 0.462D+00
 Coeff:      0.239D-05-0.411D-05-0.491D-04-0.143D-03-0.169D-03-0.665D-03
 Coeff:     -0.620D-04 0.721D-02 0.265D-01 0.131D+00 0.374D+00 0.462D+00
 Gap=     0.196 Goal=   None    Shift=    0.000
 RMSDP=3.64D-08 MaxDP=1.50D-05 DE=-1.62D-09 OVMax= 6.48D-06

 Cycle  13  Pass 1  IDiag  1:
 RMSU=  2.26D-08    CP:  8.29D-01  2.85D-01  1.02D+00  7.51D-01  7.61D-01
                    CP:  7.56D-01  8.49D-01  8.28D-01  7.22D-01  8.25D-01
                    CP:  7.95D-01  7.70D-01
 E= -1778.44078015510     Delta-E=       -0.000000000291 Rises=F Damp=F
 DIIS: error= 1.48D-07 at cycle  13 NSaved=  13.
 NSaved=13 IEnMin=13 EnMin= -1778.44078015510     IErMin=13 ErrMin= 1.48D-07
 ErrMax= 1.48D-07  0.00D+00 EMaxC= 1.00D-01 BMatC= 6.35D-11 BMatP= 6.00D-10
 IDIUse=1 WtCom= 1.00D+00 WtEn= 0.00D+00
 Coeff-Com: -0.936D-06 0.308D-05-0.108D-04-0.311D-04-0.773D-04-0.398D-03
 Coeff-Com: -0.988D-03-0.199D-02 0.150D-02 0.272D-01 0.130D+00 0.285D+00
 Coeff-Com:  0.561D+00
 Coeff:     -0.936D-06 0.308D-05-0.108D-04-0.311D-04-0.773D-04-0.398D-03
 Coeff:     -0.988D-03-0.199D-02 0.150D-02 0.272D-01 0.130D+00 0.285D+00
 Coeff:      0.561D+00
 Gap=     0.196 Goal=   None    Shift=    0.000
 RMSDP=1.11D-08 MaxDP=2.04D-06 DE=-2.91D-10 OVMax= 1.46D-06

 Cycle  14  Pass 1  IDiag  1:
 RMSU=  7.66D-09    CP:  8.29D-01  2.85D-01  1.02D+00  7.51D-01  7.61D-01
                    CP:  7.56D-01  8.49D-01  8.29D-01  7.24D-01  8.30D-01
                    CP:  7.94D-01  7.88D-01  8.17D-01
 E= -1778.44078015526     Delta-E=       -0.000000000160 Rises=F Damp=F
 DIIS: error= 2.79D-08 at cycle  14 NSaved=  14.
 NSaved=14 IEnMin=14 EnMin= -1778.44078015526     IErMin=14 ErrMin= 2.79D-08
 ErrMax= 2.79D-08  0.00D+00 EMaxC= 1.00D-01 BMatC= 2.93D-12 BMatP= 6.35D-11
 IDIUse=1 WtCom= 1.00D+00 WtEn= 0.00D+00
 Coeff-Com: -0.684D-06 0.178D-05-0.124D-05-0.372D-05-0.229D-04-0.134D-03
 Coeff-Com: -0.482D-03-0.154D-02-0.148D-02 0.134D-02 0.290D-01 0.929D-01
 Coeff-Com:  0.257D+00 0.624D+00
 Coeff:     -0.684D-06 0.178D-05-0.124D-05-0.372D-05-0.229D-04-0.134D-03
 Coeff:     -0.482D-03-0.154D-02-0.148D-02 0.134D-02 0.290D-01 0.929D-01
 Coeff:      0.257D+00 0.624D+00
 Gap=     0.196 Goal=   None    Shift=    0.000
 RMSDP=3.93D-09 MaxDP=1.44D-06 DE=-1.60D-10 OVMax= 3.48D-07

 Cycle  15  Pass 1  IDiag  1:
 RMSU=  2.56D-09    CP:  8.29D-01  2.85D-01  1.02D+00  7.51D-01  7.61D-01
                    CP:  7.56D-01  8.49D-01  8.29D-01  7.23D-01  8.31D-01
                    CP:  8.00D-01  7.97D-01  8.35D-01  8.38D-01
 E= -1778.44078015514     Delta-E=        0.000000000119 Rises=F Damp=F
 DIIS: error= 1.56D-08 at cycle  15 NSaved=  15.
 NSaved=15 IEnMin=14 EnMin= -1778.44078015526     IErMin=15 ErrMin= 1.56D-08
 ErrMax= 1.56D-08  0.00D+00 EMaxC= 1.00D-01 BMatC= 7.73D-13 BMatP= 2.93D-12
 IDIUse=1 WtCom= 1.00D+00 WtEn= 0.00D+00
 Coeff-Com: -0.288D-06 0.712D-06 0.457D-06 0.848D-06-0.540D-05-0.368D-04
 Coeff-Com: -0.180D-03-0.684D-03-0.103D-02-0.227D-02 0.292D-02 0.235D-01
 Coeff-Com:  0.884D-01 0.379D+00 0.510D+00
 Coeff:     -0.288D-06 0.712D-06 0.457D-06 0.848D-06-0.540D-05-0.368D-04
 Coeff:     -0.180D-03-0.684D-03-0.103D-02-0.227D-02 0.292D-02 0.235D-01
 Coeff:      0.884D-01 0.379D+00 0.510D+00
 Gap=     0.196 Goal=   None    Shift=    0.000
 RMSDP=2.10D-09 MaxDP=3.73D-07 DE= 1.19D-10 OVMax= 1.44D-07

 SCF Done:  E(RB3LYP) =  -1778.44078016     A.U. after   15 cycles
            NFock= 15  Conv=0.21D-08     -V/T= 2.0042
 KE= 1.770999269091D+03 PE=-1.205103842356D+04 EE= 4.567565000078D+03
 Leave Link  502 at Thu Aug 27 17:35:13 2020, MaxMem=  2147483648 cpu:     16768.4
 (Enter /global/apps/Gaussian/09.d01/l601.exe)
 Copying SCF densities to generalized density rwf, IOpCl= 0 IROHF=0.

 **********************************************************************

            Population analysis using the SCF density.

 **********************************************************************

 Orbital symmetries:
       Occupied  (A) (A) (A) (A) (A) (A) (A) (A) (A) (A) (A) (A)
                 (A) (A) (A) (A) (A) (A) (A) (A) (A) (A) (A) (A)
                 (A) (A) (A) (A) (A) (A) (A) (A) (A) (A) (A) (A)
                 (A) (A) (A) (A) (A) (A) (A) (A) (A) (A) (A) (A)
                 (A) (A) (A) (A) (A) (A) (A) (A) (A) (A) (A) (A)
                 (A) (A) (A) (A) (A) (A) (A) (A) (A) (A) (A) (A)
                 (A) (A) (A) (A) (A) (A) (A) (A) (A) (A) (A) (A)
                 (A) (A) (A) (A) (A) (A) (A) (A) (A) (A) (A) (A)
                 (A) (A) (A) (A) (A) (A) (A) (A) (A) (A) (A) (A)
                 (A) (A) (A) (A) (A) (A) (A) (A) (A) (A) (A) (A)
                 (A) (A) (A) (A) (A) (A) (A) (A) (A) (A) (A) (A)
                 (A) (A) (A) (A) (A) (A) (A)
       Virtual   (A) (A) (A) (A) (A) (A) (A) (A) (A) (A) (A) (A)
                 (A) (A) (A) (A) (A) (A) (A) (A) (A) (A) (A) (A)
                 (A) (A) (A) (A) (A) (A) (A) (A) (A) (A) (A) (A)
                 (A) (A) (A) (A) (A) (A) (A) (A) (A) (A) (A) (A)
                 (A) (A) (A) (A) (A) (A) (A) (A) (A) (A) (A) (A)
                 (A) (A) (A) (A) (A) (A) (A) (A) (A) (A) (A) (A)
                 (A) (A) (A) (A) (A) (A) (A) (A) (A) (A) (A) (A)
                 (A) (A) (A) (A) (A) (A) (A) (A) (A) (A) (A) (A)
                 (A) (A) (A) (A) (A) (A) (A) (A) (A) (A) (A) (A)
                 (A) (A) (A) (A) (A) (A) (A) (A) (A) (A) (A) (A)
                 (A) (A) (A) (A) (A) (A) (A) (A) (A) (A) (A) (A)
                 (A) (A) (A) (A) (A) (A) (A) (A) (A) (A) (A) (A)
                 (A) (A) (A) (A) (A) (A) (A) (A) (A) (A) (A) (A)
                 (A) (A) (A) (A) (A) (A) (A) (A) (A) (A) (A) (A)
                 (A) (A) (A) (A) (A) (A) (A) (A) (A) (A) (A) (A)
                 (A) (A) (A) (A) (A) (A) (A) (A) (A) (A) (A) (A)
                 (A) (A) (A) (A) (A) (A) (A) (A) (A) (A) (A) (A)
                 (A) (A) (A) (A) (A) (A) (A) (A) (A) (A) (A) (A)
                 (A) (A) (A) (A) (A) (A) (A) (A) (A) (A) (A) (A)
                 (A) (A) (A) (A) (A) (A) (A) (A) (A) (A) (A) (A)
                 (A) (A) (A) (A) (A) (A) (A) (A) (A) (A) (A) (A)
                 (A) (A) (A) (A) (A) (A) (A) (A) (A) (A) (A) (A)
                 (A) (A) (A) (A) (A) (A) (A) (A) (A) (A) (A) (A)
                 (A) (A) (A) (A) (A) (A) (A) (A) (A) (A) (A) (A)
                 (A) (A) (A) (A) (A) (A) (A) (A) (A) (A) (A) (A)
                 (A) (A) (A) (A) (A) (A) (A) (A) (A) (A) (A) (A)
                 (A) (A) (A) (A) (A) (A) (A) (A) (A) (A) (A) (A)
                 (A) (A) (A) (A) (A) (A) (A) (A) (A) (A) (A) (A)
                 (A) (A) (A) (A) (A) (A) (A) (A) (A) (A) (A) (A)
                 (A) (A) (A) (A) (A) (A) (A) (A) (A) (A) (A) (A)
                 (A) (A) (A) (A) (A) (A) (A) (A) (A) (A) (A) (A)
                 (A) (A) (A) (A) (A) (A) (A) (A) (A) (A) (A) (A)
                 (A) (A) (A) (A) (A) (A) (A) (A) (A) (A) (A) (A)
                 (A) (A) (A) (A) (A) (A) (A) (A) (A) (A) (A) (A)
                 (A) (A) (A) (A) (A) (A) (A) (A) (A) (A) (A) (A)
                 (A) (A) (A) (A) (A) (A) (A) (A) (A) (A) (A) (A)
                 (A) (A) (A) (A) (A) (A) (A) (A) (A) (A) (A) (A)
                 (A) (A) (A) (A) (A) (A) (A) (A) (A) (A) (A) (A)
                 (A) (A) (A) (A) (A) (A) (A) (A) (A) (A) (A) (A)
                 (A) (A) (A) (A) (A) (A) (A) (A) (A) (A) (A) (A)
                 (A) (A) (A) (A) (A) (A) (A) (A) (A) (A) (A) (A)
                 (A) (A) (A) (A) (A) (A) (A) (A) (A) (A) (A) (A)
                 (A) (A) (A) (A) (A) (A) (A) (A) (A) (A) (A) (A)
                 (A) (A) (A) (A) (A) (A) (A) (A) (A) (A) (A) (A)
                 (A) (A) (A) (A) (A) (A) (A) (A) (A) (A) (A) (A)
                 (A) (A) (A) (A) (A) (A) (A) (A) (A) (A) (A) (A)
                 (A) (A) (A) (A) (A) (A) (A) (A) (A) (A) (A) (A)
                 (A) (A) (A) (A) (A) (A) (A) (A) (A) (A) (A) (A)
                 (A) (A) (A) (A) (A) (A) (A) (A) (A) (A) (A) (A)
                 (A) (A) (A) (A) (A) (A) (A) (A) (A) (A) (A) (A)
                 (A) (A) (A) (A) (A) (A) (A) (A) (A) (A) (A) (A)
                 (A) (A) (A) (A) (A) (A) (A) (A) (A) (A) (A) (A)
                 (A) (A) (A) (A) (A) (A) (A) (A) (A) (A) (A) (A)
                 (A) (A) (A) (A) (A) (A) (A) (A) (A) (A) (A) (A)
                 (A) (A) (A) (A) (A) (A) (A) (A) (A) (A) (A) (A)
                 (A) (A) (A) (A) (A) (A) (A) (A) (A) (A) (A) (A)
                 (A) (A) (A) (A) (A) (A) (A) (A) (A) (A) (A) (A)
                 (A) (A) (A) (A) (A) (A) (A) (A) (A) (A) (A) (A)
                 (A) (A) (A) (A) (A) (A) (A) (A) (A) (A) (A) (A)
                 (A) (A) (A) (A) (A) (A) (A) (A) (A) (A) (A) (A)
                 (A) (A) (A) (A) (A) (A) (A) (A) (A) (A) (A) (A)
                 (A) (A) (A) (A) (A) (A) (A) (A) (A) (A) (A) (A)
                 (A) (A) (A) (A) (A) (A) (A) (A) (A) (A) (A) (A)
                 (A) (A) (A) (A) (A) (A) (A) (A) (A) (A) (A) (A)
                 (A) (A) (A) (A) (A) (A) (A) (A) (A) (A) (A) (A)
                 (A) (A) (A) (A) (A) (A) (A) (A) (A) (A) (A) (A)
                 (A) (A) (A) (A) (A) (A) (A) (A) (A) (A) (A) (A)
                 (A) (A) (A) (A) (A) (A) (A) (A) (A) (A) (A) (A)
                 (A) (A) (A) (A) (A) (A) (A) (A) (A) (A) (A) (A)
                 (A) (A) (A) (A) (A) (A) (A) (A) (A) (A) (A) (A)
                 (A) (A) (A) (A) (A) (A) (A) (A) (A) (A) (A) (A)
                 (A) (A) (A) (A) (A) (A) (A) (A) (A) (A) (A) (A)
                 (A) (A) (A) (A) (A) (A) (A) (A) (A) (A) (A) (A)
                 (A) (A) (A) (A) (A) (A) (A) (A) (A) (A) (A) (A)
                 (A) (A) (A) (A) (A) (A) (A) (A) (A) (A) (A) (A)
                 (A) (A) (A) (A) (A) (A) (A) (A) (A) (A) (A) (A)
                 (A) (A) (A) (A) (A) (A) (A) (A) (A) (A) (A) (A)
                 (A) (A) (A) (A) (A) (A) (A) (A) (A) (A) (A) (A)
                 (A) (A) (A) (A) (A) (A) (A) (A) (A) (A) (A) (A)
                 (A) (A) (A) (A) (A) (A) (A) (A) (A) (A) (A) (A)
                 (A) (A) (A) (A) (A) (A) (A) (A) (A) (A) (A) (A)
                 (A) (A) (A) (A) (A) (A) (A) (A) (A) (A) (A) (A)
                 (A) (A) (A) (A) (A) (A) (A) (A) (A) (A) (A) (A)
                 (A) (A) (A) (A) (A) (A) (A) (A) (A) (A) (A) (A)
                 (A) (A) (A) (A) (A) (A) (A) (A) (A) (A) (A) (A)
                 (A) (A) (A) (A) (A) (A) (A) (A) (A) (A) (A) (A)
                 (A) (A) (A) (A) (A) (A) (A) (A) (A) (A) (A) (A)
                 (A) (A) (A) (A) (A) (A) (A) (A) (A) (A) (A) (A)
                 (A) (A) (A) (A) (A) (A) (A) (A) (A) (A) (A) (A)
                 (A) (A) (A) (A) (A) (A) (A) (A) (A) (A) (A) (A)
                 (A) (A) (A) (A) (A) (A) (A) (A) (A) (A) (A) (A)
                 (A) (A) (A) (A) (A) (A) (A) (A) (A) (A) (A) (A)
                 (A) (A) (A) (A) (A) (A) (A) (A) (A) (A) (A) (A)
                 (A) (A) (A) (A) (A) (A) (A) (A) (A) (A) (A) (A)
                 (A) (A) (A) (A) (A) (A) (A) (A) (A) (A) (A) (A)
                 (A) (A) (A) (A) (A) (A) (A) (A) (A) (A) (A) (A)
                 (A) (A) (A) (A) (A) (A) (A) (A) (A) (A) (A) (A)
                 (A) (A) (A) (A) (A) (A) (A) (A) (A) (A) (A) (A)
                 (A) (A) (A) (A) (A) (A) (A) (A) (A) (A) (A) (A)
                 (A) (A) (A) (A) (A) (A) (A) (A) (A) (A) (A) (A)
                 (A) (A)
 The electronic state is 1-A.
 Alpha  occ. eigenvalues --  -19.11491 -19.06252 -19.03346 -19.01702 -19.01143
 Alpha  occ. eigenvalues --  -19.00758 -18.99112 -18.98676 -18.98610 -14.26827
 Alpha  occ. eigenvalues --  -14.26312 -14.25862 -14.23207 -14.22511 -10.25361
 Alpha  occ. eigenvalues --  -10.20465 -10.19571 -10.17642 -10.17326 -10.16171
 Alpha  occ. eigenvalues --  -10.14608 -10.14072 -10.13767 -10.13208 -10.11805
 Alpha  occ. eigenvalues --  -10.11754 -10.10795 -10.10492 -10.10301 -10.10227
 Alpha  occ. eigenvalues --  -10.09284 -10.08023 -10.07772 -10.07507 -10.07084
 Alpha  occ. eigenvalues --   -1.05532  -0.96804  -0.96567  -0.96088  -0.94989
 Alpha  occ. eigenvalues --   -0.93698  -0.93645  -0.92612  -0.89617  -0.86093
 Alpha  occ. eigenvalues --   -0.85404  -0.84682  -0.81872  -0.78376  -0.71479
 Alpha  occ. eigenvalues --   -0.70250  -0.70030  -0.68702  -0.67932  -0.65297
 Alpha  occ. eigenvalues --   -0.64623  -0.64105  -0.63240  -0.62392  -0.58801
 Alpha  occ. eigenvalues --   -0.56192  -0.55497  -0.55199  -0.52038  -0.51444
 Alpha  occ. eigenvalues --   -0.51393  -0.51062  -0.50365  -0.48287  -0.45843
 Alpha  occ. eigenvalues --   -0.45070  -0.44742  -0.43991  -0.43713  -0.43324
 Alpha  occ. eigenvalues --   -0.42765  -0.42235  -0.40920  -0.40382  -0.40296
 Alpha  occ. eigenvalues --   -0.39758  -0.39673  -0.38750  -0.37861  -0.37649
 Alpha  occ. eigenvalues --   -0.37507  -0.37157  -0.37077  -0.36641  -0.36485
 Alpha  occ. eigenvalues --   -0.36345  -0.36333  -0.36007  -0.34720  -0.34589
 Alpha  occ. eigenvalues --   -0.34470  -0.34389  -0.34086  -0.33487  -0.33242
 Alpha  occ. eigenvalues --   -0.33226  -0.32991  -0.32768  -0.32566  -0.32502
 Alpha  occ. eigenvalues --   -0.31967  -0.31517  -0.31283  -0.30933  -0.30251
 Alpha  occ. eigenvalues --   -0.30145  -0.29748  -0.29469  -0.29137  -0.28823
 Alpha  occ. eigenvalues --   -0.28569  -0.28185  -0.27830  -0.27156  -0.26854
 Alpha  occ. eigenvalues --   -0.26424  -0.25917  -0.25693  -0.25351  -0.23499
 Alpha  occ. eigenvalues --   -0.21327  -0.20363  -0.20245  -0.20023  -0.19219
 Alpha  occ. eigenvalues --   -0.19102  -0.18744  -0.18134  -0.17935  -0.17006
 Alpha  occ. eigenvalues --   -0.16392  -0.16173  -0.15682  -0.14521
 Alpha virt. eigenvalues --    0.05052   0.05564   0.06269   0.07007   0.07113
 Alpha virt. eigenvalues --    0.07569   0.08160   0.08359   0.08440   0.08674
 Alpha virt. eigenvalues --    0.08806   0.09183   0.09268   0.09573   0.09873
 Alpha virt. eigenvalues --    0.10009   0.10264   0.10514   0.10673   0.11093
 Alpha virt. eigenvalues --    0.11150   0.11630   0.11666   0.11831   0.12014
 Alpha virt. eigenvalues --    0.12178   0.12362   0.12390   0.12817   0.12937
 Alpha virt. eigenvalues --    0.13177   0.13506   0.13703   0.13890   0.14075
 Alpha virt. eigenvalues --    0.14224   0.14522   0.14658   0.14830   0.14964
 Alpha virt. eigenvalues --    0.15244   0.15301   0.15428   0.15816   0.16016
 Alpha virt. eigenvalues --    0.16312   0.16523   0.16667   0.16987   0.17090
 Alpha virt. eigenvalues --    0.17259   0.17416   0.17655   0.17841   0.18122
 Alpha virt. eigenvalues --    0.18307   0.18403   0.18488   0.18934   0.19310
 Alpha virt. eigenvalues --    0.19367   0.19500   0.19779   0.20148   0.20343
 Alpha virt. eigenvalues --    0.20534   0.20691   0.21012   0.21436   0.21605
 Alpha virt. eigenvalues --    0.21850   0.22111   0.22347   0.22615   0.22859
 Alpha virt. eigenvalues --    0.23021   0.23196   0.23301   0.23600   0.23731
 Alpha virt. eigenvalues --    0.23875   0.23989   0.24292   0.24426   0.24651
 Alpha virt. eigenvalues --    0.24782   0.25089   0.25144   0.25549   0.25762
 Alpha virt. eigenvalues --    0.25862   0.26133   0.26141   0.26291   0.26359
 Alpha virt. eigenvalues --    0.26640   0.26690   0.26812   0.26965   0.27223
 Alpha virt. eigenvalues --    0.27422   0.27512   0.27769   0.27952   0.28145
 Alpha virt. eigenvalues --    0.28385   0.28449   0.28556   0.28787   0.28988
 Alpha virt. eigenvalues --    0.29178   0.29389   0.29520   0.29583   0.29810
 Alpha virt. eigenvalues --    0.29958   0.30083   0.30259   0.30336   0.30532
 Alpha virt. eigenvalues --    0.30923   0.30954   0.31027   0.31447   0.31488
 Alpha virt. eigenvalues --    0.31778   0.31859   0.31997   0.32193   0.32319
 Alpha virt. eigenvalues --    0.32622   0.32883   0.33181   0.33260   0.33434
 Alpha virt. eigenvalues --    0.33559   0.33796   0.33860   0.34184   0.34366
 Alpha virt. eigenvalues --    0.34488   0.34644   0.34967   0.35047   0.35284
 Alpha virt. eigenvalues --    0.35427   0.35760   0.36038   0.36257   0.36425
 Alpha virt. eigenvalues --    0.36511   0.36672   0.36895   0.36982   0.37120
 Alpha virt. eigenvalues --    0.37590   0.37663   0.37915   0.38229   0.38525
 Alpha virt. eigenvalues --    0.38576   0.38702   0.38980   0.39432   0.39490
 Alpha virt. eigenvalues --    0.39833   0.39879   0.40104   0.40497   0.40719
 Alpha virt. eigenvalues --    0.40836   0.40854   0.41200   0.41693   0.42196
 Alpha virt. eigenvalues --    0.42273   0.42639   0.42817   0.43093   0.43421
 Alpha virt. eigenvalues --    0.43465   0.43978   0.44246   0.44510   0.44631
 Alpha virt. eigenvalues --    0.44841   0.45112   0.45238   0.45464   0.45799
 Alpha virt. eigenvalues --    0.46105   0.46213   0.46590   0.46933   0.47212
 Alpha virt. eigenvalues --    0.47435   0.47717   0.47914   0.48107   0.48475
 Alpha virt. eigenvalues --    0.48540   0.48908   0.49148   0.49268   0.49543
 Alpha virt. eigenvalues --    0.49806   0.50124   0.50406   0.50635   0.50960
 Alpha virt. eigenvalues --    0.51008   0.51277   0.51635   0.51852   0.51932
 Alpha virt. eigenvalues --    0.52637   0.52801   0.52924   0.53201   0.53897
 Alpha virt. eigenvalues --    0.54206   0.54449   0.54685   0.54886   0.55308
 Alpha virt. eigenvalues --    0.55334   0.56084   0.56190   0.56464   0.56820
 Alpha virt. eigenvalues --    0.57123   0.57255   0.57410   0.57670   0.58090
 Alpha virt. eigenvalues --    0.58530   0.58627   0.59136   0.59451   0.59793
 Alpha virt. eigenvalues --    0.60072   0.60208   0.60892   0.60935   0.61113
 Alpha virt. eigenvalues --    0.61541   0.61731   0.61942   0.62157   0.62295
 Alpha virt. eigenvalues --    0.62532   0.62950   0.63137   0.63575   0.63945
 Alpha virt. eigenvalues --    0.64286   0.64349   0.64751   0.64827   0.65140
 Alpha virt. eigenvalues --    0.65417   0.65576   0.65744   0.66032   0.66306
 Alpha virt. eigenvalues --    0.66385   0.66499   0.66681   0.66889   0.67070
 Alpha virt. eigenvalues --    0.67402   0.67776   0.67957   0.68203   0.68404
 Alpha virt. eigenvalues --    0.68529   0.69004   0.69312   0.69543   0.69702
 Alpha virt. eigenvalues --    0.69862   0.70104   0.70277   0.70580   0.70767
 Alpha virt. eigenvalues --    0.70993   0.71193   0.71512   0.71715   0.71921
 Alpha virt. eigenvalues --    0.72434   0.72655   0.72782   0.73025   0.73515
 Alpha virt. eigenvalues --    0.73864   0.74092   0.74234   0.74447   0.74763
 Alpha virt. eigenvalues --    0.74885   0.75295   0.75475   0.75935   0.76010
 Alpha virt. eigenvalues --    0.76439   0.76746   0.76791   0.76949   0.77120
 Alpha virt. eigenvalues --    0.77454   0.77789   0.78335   0.78574   0.78835
 Alpha virt. eigenvalues --    0.79370   0.79431   0.79608   0.80090   0.80302
 Alpha virt. eigenvalues --    0.80648   0.80834   0.81107   0.81317   0.82024
 Alpha virt. eigenvalues --    0.82449   0.82908   0.82970   0.83094   0.83333
 Alpha virt. eigenvalues --    0.83744   0.84309   0.84467   0.84612   0.84957
 Alpha virt. eigenvalues --    0.85257   0.85745   0.86119   0.86680   0.86980
 Alpha virt. eigenvalues --    0.87265   0.87437   0.87714   0.87894   0.88350
 Alpha virt. eigenvalues --    0.88655   0.89172   0.89538   0.89608   0.89771
 Alpha virt. eigenvalues --    0.90508   0.90742   0.91283   0.91375   0.91949
 Alpha virt. eigenvalues --    0.91992   0.92394   0.92707   0.93213   0.93270
 Alpha virt. eigenvalues --    0.93749   0.94211   0.94392   0.94683   0.95271
 Alpha virt. eigenvalues --    0.95647   0.96087   0.96204   0.96447   0.96803
 Alpha virt. eigenvalues --    0.97269   0.98019   0.98306   0.98563   0.98879
 Alpha virt. eigenvalues --    0.99057   0.99744   0.99815   1.00055   1.00526
 Alpha virt. eigenvalues --    1.01143   1.01445   1.01578   1.01962   1.02293
 Alpha virt. eigenvalues --    1.02363   1.02828   1.03282   1.03487   1.03721
 Alpha virt. eigenvalues --    1.04385   1.04499   1.04800   1.05245   1.05657
 Alpha virt. eigenvalues --    1.06164   1.06237   1.06614   1.07342   1.07480
 Alpha virt. eigenvalues --    1.07702   1.07906   1.08253   1.08391   1.08882
 Alpha virt. eigenvalues --    1.09464   1.09766   1.09939   1.10122   1.10623
 Alpha virt. eigenvalues --    1.10951   1.11522   1.11836   1.11959   1.12542
 Alpha virt. eigenvalues --    1.12928   1.13151   1.13371   1.13810   1.14069
 Alpha virt. eigenvalues --    1.14316   1.14534   1.14798   1.15081   1.15543
 Alpha virt. eigenvalues --    1.15906   1.16190   1.16362   1.16741   1.17282
 Alpha virt. eigenvalues --    1.17488   1.17658   1.17992   1.18157   1.18679
 Alpha virt. eigenvalues --    1.18859   1.19010   1.19160   1.19616   1.19757
 Alpha virt. eigenvalues --    1.20068   1.20525   1.20571   1.20780   1.20969
 Alpha virt. eigenvalues --    1.21019   1.21287   1.21345   1.21721   1.22059
 Alpha virt. eigenvalues --    1.22469   1.22608   1.22879   1.23171   1.23282
 Alpha virt. eigenvalues --    1.23425   1.23673   1.23952   1.24092   1.24751
 Alpha virt. eigenvalues --    1.25025   1.25152   1.25338   1.25507   1.25963
 Alpha virt. eigenvalues --    1.26146   1.26311   1.26816   1.27253   1.27541
 Alpha virt. eigenvalues --    1.27881   1.28228   1.28439   1.28853   1.29260
 Alpha virt. eigenvalues --    1.29682   1.29893   1.30205   1.30344   1.30638
 Alpha virt. eigenvalues --    1.30965   1.31052   1.31278   1.31835   1.32116
 Alpha virt. eigenvalues --    1.32176   1.32480   1.33008   1.33504   1.33585
 Alpha virt. eigenvalues --    1.33670   1.33886   1.34051   1.34368   1.34762
 Alpha virt. eigenvalues --    1.34879   1.35071   1.35838   1.36189   1.36561
 Alpha virt. eigenvalues --    1.36682   1.36754   1.37523   1.37674   1.37943
 Alpha virt. eigenvalues --    1.38115   1.38514   1.38704   1.39042   1.39414
 Alpha virt. eigenvalues --    1.39764   1.39918   1.40332   1.40804   1.41019
 Alpha virt. eigenvalues --    1.41380   1.41711   1.41878   1.42100   1.42473
 Alpha virt. eigenvalues --    1.42876   1.43092   1.43199   1.43343   1.43675
 Alpha virt. eigenvalues --    1.44267   1.44753   1.44796   1.45224   1.45778
 Alpha virt. eigenvalues --    1.46157   1.46436   1.46718   1.47148   1.47218
 Alpha virt. eigenvalues --    1.47727   1.47912   1.48088   1.48138   1.48769
 Alpha virt. eigenvalues --    1.49278   1.49661   1.49899   1.50097   1.50248
 Alpha virt. eigenvalues --    1.50495   1.50796   1.51138   1.51503   1.51585
 Alpha virt. eigenvalues --    1.51914   1.52163   1.52801   1.52880   1.53094
 Alpha virt. eigenvalues --    1.53589   1.53905   1.54401   1.54667   1.54852
 Alpha virt. eigenvalues --    1.55229   1.55824   1.56114   1.56192   1.56403
 Alpha virt. eigenvalues --    1.57015   1.57207   1.57356   1.57565   1.57763
 Alpha virt. eigenvalues --    1.58079   1.58256   1.58700   1.59227   1.59534
 Alpha virt. eigenvalues --    1.59780   1.60325   1.60870   1.61055   1.61568
 Alpha virt. eigenvalues --    1.61673   1.62040   1.62402   1.62785   1.63269
 Alpha virt. eigenvalues --    1.63447   1.63659   1.63948   1.64233   1.64591
 Alpha virt. eigenvalues --    1.64881   1.65148   1.65519   1.66040   1.66174
 Alpha virt. eigenvalues --    1.66415   1.66915   1.67290   1.67721   1.67869
 Alpha virt. eigenvalues --    1.68127   1.68740   1.68967   1.69395   1.69571
 Alpha virt. eigenvalues --    1.69923   1.70533   1.70952   1.71253   1.71397
 Alpha virt. eigenvalues --    1.71671   1.72194   1.72429   1.73377   1.73563
 Alpha virt. eigenvalues --    1.73648   1.73994   1.74592   1.74725   1.75110
 Alpha virt. eigenvalues --    1.75686   1.75731   1.76566   1.77024   1.77771
 Alpha virt. eigenvalues --    1.78367   1.79282   1.79961   1.80784   1.81239
 Alpha virt. eigenvalues --    1.82466   1.82834   1.83290   1.84393   1.84915
 Alpha virt. eigenvalues --    1.85185   1.85576   1.85977   1.86932   1.87966
 Alpha virt. eigenvalues --    1.88521   1.89127   1.90226   1.90782   1.91146
 Alpha virt. eigenvalues --    1.91699   1.93425   1.95039   1.96236   1.96721
 Alpha virt. eigenvalues --    1.97794   1.98689   1.99268   2.00260   2.01035
 Alpha virt. eigenvalues --    2.01467   2.01953   2.02440   2.03512   2.03936
 Alpha virt. eigenvalues --    2.05049   2.05909   2.07669   2.07982   2.08893
 Alpha virt. eigenvalues --    2.09732   2.10060   2.12356   2.13026   2.13868
 Alpha virt. eigenvalues --    2.14250   2.15087   2.16389   2.16582   2.17500
 Alpha virt. eigenvalues --    2.19873   2.20399   2.21620   2.22173   2.22939
 Alpha virt. eigenvalues --    2.23328   2.25961   2.26999   2.28189   2.29118
 Alpha virt. eigenvalues --    2.30531   2.31054   2.34773   2.35759   2.40534
 Alpha virt. eigenvalues --    2.41267   2.41562   2.44682   2.44741   2.46993
 Alpha virt. eigenvalues --    2.48325   2.52825   2.60758   2.61028   2.62329
 Alpha virt. eigenvalues --    2.62531   2.64300   2.65302   2.65568   2.66163
 Alpha virt. eigenvalues --    2.67538   2.67666   2.68534   2.70961   2.71523
 Alpha virt. eigenvalues --    2.72065   2.73482   2.75021   2.75353   2.76238
 Alpha virt. eigenvalues --    2.78375   2.79997   2.80894   2.81522   2.82435
 Alpha virt. eigenvalues --    2.82824   2.84394   2.85232   2.86415   2.86882
 Alpha virt. eigenvalues --    2.88064   2.90208   2.90632   2.91456   2.91810
 Alpha virt. eigenvalues --    2.93219   2.94209   2.95301   2.96448   2.97657
 Alpha virt. eigenvalues --    2.98066   2.99191   2.99508   3.00063   3.01046
 Alpha virt. eigenvalues --    3.01658   3.02434   3.02563   3.03113   3.03882
 Alpha virt. eigenvalues --    3.04203   3.04903   3.05538   3.05669   3.07592
 Alpha virt. eigenvalues --    3.08016   3.08352   3.09192   3.09774   3.11528
 Alpha virt. eigenvalues --    3.11663   3.12569   3.12989   3.13824   3.14499
 Alpha virt. eigenvalues --    3.14989   3.16249   3.17990   3.18460   3.19869
 Alpha virt. eigenvalues --    3.20890   3.21358   3.21584   3.22214   3.22429
 Alpha virt. eigenvalues --    3.23487   3.24970   3.25496   3.25995   3.26470
 Alpha virt. eigenvalues --    3.27339   3.27552   3.27604   3.28370   3.28837
 Alpha virt. eigenvalues --    3.29493   3.30224   3.31196   3.31547   3.32809
 Alpha virt. eigenvalues --    3.32900   3.33581   3.34311   3.34767   3.35358
 Alpha virt. eigenvalues --    3.35484   3.36526   3.36775   3.38000   3.38362
 Alpha virt. eigenvalues --    3.39178   3.39478   3.39565   3.40392   3.41619
 Alpha virt. eigenvalues --    3.42183   3.43222   3.43570   3.43860   3.44283
 Alpha virt. eigenvalues --    3.44559   3.46264   3.47154   3.47552   3.47608
 Alpha virt. eigenvalues --    3.48601   3.48669   3.48994   3.49865   3.50093
 Alpha virt. eigenvalues --    3.50521   3.50842   3.51214   3.52112   3.52689
 Alpha virt. eigenvalues --    3.52752   3.53314   3.53901   3.54100   3.54494
 Alpha virt. eigenvalues --    3.54866   3.55176   3.55866   3.56386   3.56654
 Alpha virt. eigenvalues --    3.57269   3.57437   3.57651   3.57893   3.58061
 Alpha virt. eigenvalues --    3.58554   3.59135   3.60183   3.60417   3.60730
 Alpha virt. eigenvalues --    3.60840   3.61317   3.61627   3.61754   3.61933
 Alpha virt. eigenvalues --    3.62484   3.62699   3.63270   3.63828   3.64285
 Alpha virt. eigenvalues --    3.64577   3.64972   3.65284   3.65650   3.66505
 Alpha virt. eigenvalues --    3.66638   3.67079   3.67405   3.67827   3.67836
 Alpha virt. eigenvalues --    3.68007   3.68863   3.68925   3.69230   3.69438
 Alpha virt. eigenvalues --    3.69711   3.70223   3.70475   3.70582   3.71057
 Alpha virt. eigenvalues --    3.71311   3.72051   3.72487   3.72758   3.73329
 Alpha virt. eigenvalues --    3.73770   3.74480   3.75060   3.75094   3.75459
 Alpha virt. eigenvalues --    3.75727   3.76102   3.76241   3.76757   3.76855
 Alpha virt. eigenvalues --    3.77665   3.78616   3.78771   3.79517   3.79892
 Alpha virt. eigenvalues --    3.80422   3.81736   3.82486   3.82658   3.83016
 Alpha virt. eigenvalues --    3.85013   3.85482   3.85707   3.86331   3.86657
 Alpha virt. eigenvalues --    3.88845   3.89033   3.89603   3.89904   3.90578
 Alpha virt. eigenvalues --    3.91011   3.91428   3.91859   3.92542   3.93696
 Alpha virt. eigenvalues --    3.94130   3.95357   3.95403   3.95617   3.96927
 Alpha virt. eigenvalues --    3.97694   3.98369   3.99210   3.99463   3.99647
 Alpha virt. eigenvalues --    3.99998   4.00787   4.00936   4.01423   4.03117
 Alpha virt. eigenvalues --    4.03175   4.03678   4.03792   4.04426   4.04816
 Alpha virt. eigenvalues --    4.05557   4.05852   4.06124   4.06571   4.07324
 Alpha virt. eigenvalues --    4.07947   4.08799   4.08986   4.09332   4.09741
 Alpha virt. eigenvalues --    4.09879   4.10084   4.10849   4.11243   4.11528
 Alpha virt. eigenvalues --    4.12146   4.12667   4.12908   4.13332   4.14062
 Alpha virt. eigenvalues --    4.14302   4.14836   4.15191   4.15324   4.15560
 Alpha virt. eigenvalues --    4.16104   4.16436   4.16514   4.17085   4.17506
 Alpha virt. eigenvalues --    4.18264   4.18572   4.18721   4.19520   4.19930
 Alpha virt. eigenvalues --    4.20432   4.21261   4.21595   4.22018   4.22047
 Alpha virt. eigenvalues --    4.22202   4.22499   4.22699   4.22928   4.23124
 Alpha virt. eigenvalues --    4.23436   4.23962   4.24614   4.24724   4.25243
 Alpha virt. eigenvalues --    4.25751   4.26104   4.26181   4.26236   4.27306
 Alpha virt. eigenvalues --    4.27541   4.27861   4.27998   4.28516   4.28708
 Alpha virt. eigenvalues --    4.29250   4.29423   4.30332   4.30676   4.31567
 Alpha virt. eigenvalues --    4.31773   4.32312   4.33204   4.33964   4.34302
 Alpha virt. eigenvalues --    4.34583   4.36002   4.36318   4.36608   4.37367
 Alpha virt. eigenvalues --    4.37578   4.38325   4.38673   4.38879   4.39580
 Alpha virt. eigenvalues --    4.40349   4.41643   4.42577   4.43155   4.44918
 Alpha virt. eigenvalues --    4.45821   4.47584   4.47779   4.49479   4.50666
 Alpha virt. eigenvalues --    4.51291   4.53403   4.53982   4.54999   4.55474
 Alpha virt. eigenvalues --    4.58307   4.61935   4.66152   4.69032   4.69836
 Alpha virt. eigenvalues --    4.70717   4.72623   4.74280   4.82460   4.88820
 Alpha virt. eigenvalues --    4.93214   4.94780   4.95118   5.01558   5.04236
 Alpha virt. eigenvalues --    5.05479   5.05779   5.08378   5.09070   5.10248
 Alpha virt. eigenvalues --    5.10716   5.12034   5.12464   5.13925   5.14073
 Alpha virt. eigenvalues --    5.14409   5.14593   5.14905   5.15162   5.15270
 Alpha virt. eigenvalues --    5.15969   5.16981   5.17128   5.17310   5.17916
 Alpha virt. eigenvalues --    5.18183   5.18369   5.18624   5.19060   5.19544
 Alpha virt. eigenvalues --    5.19949   5.20483   5.21017   5.21393   5.22171
 Alpha virt. eigenvalues --    5.23099   5.23350   5.23714   5.24296   5.25566
 Alpha virt. eigenvalues --    5.26300   5.27097   5.27761   5.28087   5.28907
 Alpha virt. eigenvalues --    5.29840   5.30261   5.31468   5.34021   5.34201
 Alpha virt. eigenvalues --    5.34654   5.37463   5.38136   5.41006   5.42309
 Alpha virt. eigenvalues --    5.44304   5.48763   5.49181   5.50727   5.51206
 Alpha virt. eigenvalues --    5.51748   5.52719   5.53804   5.55427   5.59529
 Alpha virt. eigenvalues --    5.59807   5.64789   5.65912   5.66238   5.67839
 Alpha virt. eigenvalues --    5.73129   5.80009   5.82184   5.82898   5.85545
 Alpha virt. eigenvalues --    5.97138   5.99773   6.01885   6.04451   6.09329
 Alpha virt. eigenvalues --    6.19306   6.19791   6.20147   6.20726   6.24346
 Alpha virt. eigenvalues --    6.27261   6.30365   6.89862   6.91596   6.93460
 Alpha virt. eigenvalues --    6.95373   6.95946   6.97939   6.98519   7.00187
 Alpha virt. eigenvalues --    7.00634   7.01486   7.03504   7.05108   7.05360
 Alpha virt. eigenvalues --    7.06173   7.10641   7.11242   7.13206   7.15094
 Alpha virt. eigenvalues --    7.16109   7.16401   7.17907   7.18142   7.21212
 Alpha virt. eigenvalues --    7.21959   7.22891   7.24825   7.32199   7.33354
 Alpha virt. eigenvalues --    7.33432   7.34347   7.35946   7.36166   7.38029
 Alpha virt. eigenvalues --    7.38325   7.39263   7.40288   7.40743   7.45383
 Alpha virt. eigenvalues --    7.51355   7.53102   7.55709   7.58107   7.58195
 Alpha virt. eigenvalues --    7.66661   7.73853  23.97727  23.97998  23.98423
 Alpha virt. eigenvalues --   24.01980  24.02958  24.04301  24.05077  24.05137
 Alpha virt. eigenvalues --   24.05635  24.06411  24.08459  24.09648  24.10559
 Alpha virt. eigenvalues --   24.15171  24.17608  24.20045  24.21105  24.21618
 Alpha virt. eigenvalues --   24.22256  24.24170  24.26640  35.70077  35.70546
 Alpha virt. eigenvalues --   35.74907  35.76233  35.82451  50.07790  50.07859
 Alpha virt. eigenvalues --   50.11554  50.14269  50.14343  50.15886  50.16569
 Alpha virt. eigenvalues --   50.18003  50.19656
          Condensed to atoms (all electrons):
 Mulliken charges:
               1
     1  C    0.196054
     2  C    0.117888
     3  N   -0.248463
     4  C   -0.212939
     5  H    0.089306
     6  H    0.095647
     7  O   -0.546589
     8  C   -0.164470
     9  H    0.265907
    10  H    0.126613
    11  O   -0.647626
    12  H    0.094791
    13  H    0.118929
    14  H    0.099704
    15  H    0.110774
    16  C    0.446848
    17  C   -0.313016
    18  O   -0.277567
    19  O   -0.517621
    20  H    0.125544
    21  H    0.117672
    22  H    0.151575
    23  C   -0.120175
    24  H    0.154410
    25  H    0.138447
    26  H    0.112362
    27  N   -0.511260
    28  C    0.188851
    29  C   -0.405564
    30  N   -0.400035
    31  H    0.121588
    32  C    0.429863
    33  H    0.086250
    34  C   -0.298200
    35  C   -0.454911
    36  H    0.070069
    37  H    0.164184
    38  H    0.088009
    39  H    0.083435
    40  H    0.120564
    41  C   -0.250739
    42  C    0.294955
    43  H    0.122759
    44  H    0.103086
    45  H    0.099994
    46  N   -0.244840
    47  O   -0.551035
    48  C   -0.201529
    49  H    0.285712
    50  H    0.136503
    51  H    0.095164
    52  H    0.093683
    53  C    0.557627
    54  C   -0.037609
    55  O   -0.621938
    56  O   -0.732146
    57  C   -0.363444
    58  H    0.081461
    59  H    0.084233
    60  H    0.083342
    61  H    0.089122
    62  H    0.108413
    63  N   -0.437158
    64  C   -0.178884
    65  C    0.349076
    66  H    0.355319
    67  H    0.142625
    68  H    0.095909
    69  H    0.113970
    70  C   -0.312186
    71  O   -0.549678
    72  H    0.111821
    73  H    0.124649
    74  H    0.105297
    75  O   -0.486541
    76  H    0.208818
    77  H    0.274982
    78  H    0.486131
    79  H    0.566225
 Sum of Mulliken charges =  -1.00000
 Mulliken charges with hydrogens summed into heavy atoms:
               1
     1  C    0.196054
     2  C    0.302841
     3  N    0.017444
     4  C    0.008464
     7  O   -0.546589
     8  C    0.164938
    11  O   -0.081401
    16  C    0.446848
    17  C    0.081774
    18  O   -0.277567
    19  O   -0.517621
    23  C    0.285043
    27  N   -0.511260
    28  C    0.310439
    29  C   -0.319313
    30  N    0.086096
    32  C    0.429863
    34  C   -0.063947
    35  C   -0.162902
    41  C    0.075101
    42  C    0.294955
    46  N    0.040872
    47  O   -0.551035
    48  C    0.123821
    53  C    0.557627
    54  C    0.128086
    55  O   -0.621938
    56  O   -0.732146
    57  C   -0.082566
    63  N   -0.081839
    64  C    0.173621
    65  C    0.349076
    70  C    0.029582
    71  O   -0.549678
    75  O   -0.002741
 Electronic spatial extent (au):  <R**2>=          30087.0574
 Charge=             -1.0000 electrons
 Dipole moment (field-independent basis, Debye):
    X=             -3.7209    Y=              1.2956    Z=              1.2077  Tot=              4.1210
 Quadrupole moment (field-independent basis, Debye-Ang):
   XX=           -396.0087   YY=           -294.0168   ZZ=           -237.1213
   XY=             13.8924   XZ=             14.0464   YZ=              0.4472
 Traceless Quadrupole moment (field-independent basis, Debye-Ang):
   XX=            -86.9597   YY=             15.0321   ZZ=             71.9276
   XY=             13.8924   XZ=             14.0464   YZ=              0.4472
 Octapole moment (field-independent basis, Debye-Ang**2):
  XXX=            267.3313  YYY=            -75.4103  ZZZ=              2.3672  XYY=             98.2271
  XXY=            221.0494  XXZ=           -147.8901  XZZ=            -32.5178  YZZ=             39.5771
  YYZ=             92.8261  XYZ=           -148.0025
 Hexadecapole moment (field-independent basis, Debye-Ang**3):
 XXXX=         -38932.9044 YYYY=          -8025.3485 ZZZZ=          -3603.1590 XXXY=          -1541.6790
 XXXZ=           1195.3025 YYYX=            794.2501 YYYZ=            100.1959 ZZZX=            128.1018
 ZZZY=           -136.2373 XXYY=          -8510.8293 XXZZ=          -6149.7914 YYZZ=          -2034.7532
 XXYZ=            743.7330 YYXZ=              4.7647 ZZXY=            147.4177
 N-N= 3.934033374231D+03 E-N=-1.205103842438D+04  KE= 1.770999269091D+03
 No NMR shielding tensors so no spin-rotation constants.
 Leave Link  601 at Thu Aug 27 17:35:15 2020, MaxMem=  2147483648 cpu:        23.7
 (Enter /global/apps/Gaussian/09.d01/l9999.exe)
 1\1\GINC-C48-3\SP\RB3LYP\6-311+G(2d,2p)\C21H44N5O9(1-)\BENTESIRINBARGE
 \27-Aug-2020\0\\#p b3lyp/6-311+g(2d,2p) empiricaldispersion=gd3\\Title
  Card Required\\-1,1\C,0,-4.02138,3.701793,-0.972326\C,0,-2.679576,3.8
 10718,-0.24643\N,0,-4.585129,2.467418,-1.06047\C,0,-2.339431,2.761389,
 0.816666\H,0,-1.892109,3.79542,-1.011149\H,0,-2.667762,4.81238,0.19549
 7\O,0,-4.545604,4.692843,-1.480802\C,0,-5.834293,2.285146,-1.781246\H,
 0,-4.125832,1.665321,-0.648922\H,0,-1.443509,3.088567,1.361159\O,0,-2.
 114455,1.486007,0.23893\H,0,-3.16073,2.702875,1.548969\H,0,-5.787158,2
 .79104,-2.749939\H,0,-6.685462,2.703522,-1.230512\H,0,-5.99272,1.21471
 2,-1.927182\C,0,-3.077388,-0.721033,-1.244498\C,0,-2.725096,-0.074509,
 -2.554647\O,0,-2.000349,-1.250342,-0.660441\O,0,-4.198985,-0.724626,-0
 .753499\H,0,-1.949374,-0.63876,-3.075547\H,0,-3.616062,0.035035,-3.172
 539\H,0,-2.32794,0.914654,-2.306435\C,0,-2.13447,-1.630546,0.721197\H,
 0,-1.11965,-1.832579,1.061224\H,0,-2.565035,-0.7984,1.281281\H,0,-2.76
 0294,-2.521909,0.817292\N,0,0.454861,0.934315,1.02925\C,0,1.44073,1.47
 697,0.321949\C,0,1.083876,0.333401,2.10512\N,0,2.650529,1.253467,0.879
 921\H,0,1.313232,2.029337,-0.598244\C,0,2.450712,0.520827,2.031313\H,0
 ,0.52386,-0.192601,2.866387\C,0,3.581988,0.05491,2.905757\C,0,4.436302
 ,1.186304,3.524775\H,0,3.150074,-0.560442,3.70413\H,0,4.240337,-0.6081
 14,2.328766\H,0,5.245606,0.761042,4.127092\H,0,3.828456,1.834389,4.165
 799\H,0,4.877388,1.801389,2.734444\C,0,-7.739444,-1.065571,0.249007\C,
 0,-7.252874,-2.292137,1.00876\H,0,-6.940145,-0.526213,-0.26596\H,0,-8.
 233029,-0.391508,0.954881\H,0,-8.491576,-1.384348,-0.477749\N,0,-5.906
 328,-2.4982,0.975708\O,0,-8.039988,-3.026624,1.603461\C,0,-5.293786,-3
 .627697,1.645594\H,0,-5.310282,-1.859859,0.457004\H,0,-6.090989,-4.226
 272,2.088577\H,0,-4.611603,-3.301572,2.440635\H,0,-4.729419,-4.24879,0
 .939257\C,0,5.855546,1.263313,-0.066075\C,0,7.34858,1.613795,0.039723\
 O,0,5.043804,2.1787,0.249294\O,0,5.547424,0.086185,-0.415765\C,0,8.264
 096,0.75312,-0.830067\H,0,7.616871,1.495897,1.099247\H,0,7.458789,2.68
 026,-0.182407\H,0,9.319479,1.002035,-0.669642\H,0,8.040123,0.893895,-1
 .893025\H,0,8.114224,-0.306048,-0.606348\N,0,3.599445,-1.851192,-1.239
 215\C,0,2.162179,-1.897442,-1.034918\C,0,4.193315,-2.713134,-2.119129\
 H,0,4.116504,-1.01743,-0.943616\H,0,1.910482,-1.373172,-0.11007\H,0,1.
 606041,-1.431575,-1.85982\H,0,1.840039,-2.93913,-0.969788\C,0,5.695244
 ,-2.526081,-2.282989\O,0,3.572497,-3.609283,-2.691\H,0,5.957017,-1.471
 778,-2.405254\H,0,6.196998,-2.860464,-1.368441\H,0,6.032999,-3.117968,
 -3.134128\O,0,5.729014,-2.205434,1.103169\H,0,4.901576,-2.489827,0.689
 111\H,0,5.880055,-1.356072,0.638551\H,0,3.597474,1.604136,0.532793\H,0
 ,-1.196424,1.187639,0.506273\\Version=EM64L-G09RevD.01\State=1-A\HF=-1
 778.4407802\RMSD=2.098e-09\Dipole=-1.4639287,0.5097164,0.4751284\Quadr
 upole=-64.6524264,11.1759945,53.4764319,10.3286868,10.4431563,0.332451
 5\PG=C01 [X(C21H44N5O9)]\\@


 ERWIN WITH HIS PSI CAN DO
 CALCULATIONS QUITE A FEW.
 BUT ONE THING HAS NOT BEEN SEEN
 JUST WHAT DOES PSI REALLY MEAN.
 -- WALTER HUCKEL, TRANS. BY FELIX BLOCH
 Job cpu time:       0 days  4 hours 44 minutes 17.7 seconds.
 File lengths (MBytes):  RWF=    923 Int=      0 D2E=      0 Chk=     63 Scr=      1
 Normal termination of Gaussian 09 at Thu Aug 27 17:35:16 2020.
