 Entering Gaussian System, Link 0=g09
 Initial command:
 /global/apps/Gaussian/09.d01/l1.exe "/global/work/bentesirinbarge/2545359/Gau-59902.inp" -scrdir="/global/work/bentesirinbarge/2545359/"
 Entering Link 1 = /global/apps/Gaussian/09.d01/l1.exe PID=     59903.
  
 Copyright (c) 1988,1990,1992,1993,1995,1998,2003,2009,2013,
            Gaussian, Inc.  All Rights Reserved.
  
 This is part of the Gaussian(R) 09 program.  It is based on
 the Gaussian(R) 03 system (copyright 2003, Gaussian, Inc.),
 the Gaussian(R) 98 system (copyright 1998, Gaussian, Inc.),
 the Gaussian(R) 94 system (copyright 1995, Gaussian, Inc.),
 the Gaussian 92(TM) system (copyright 1992, Gaussian, Inc.),
 the Gaussian 90(TM) system (copyright 1990, Gaussian, Inc.),
 the Gaussian 88(TM) system (copyright 1988, Gaussian, Inc.),
 the Gaussian 86(TM) system (copyright 1986, Carnegie Mellon
 University), and the Gaussian 82(TM) system (copyright 1983,
 Carnegie Mellon University). Gaussian is a federally registered
 trademark of Gaussian, Inc.
  
 This software contains proprietary and confidential information,
 including trade secrets, belonging to Gaussian, Inc.
  
 This software is provided under written license and may be
 used, copied, transmitted, or stored only in accord with that
 written license.
  
 The following legend is applicable only to US Government
 contracts under FAR:
  
                    RESTRICTED RIGHTS LEGEND
  
 Use, reproduction and disclosure by the US Government is
 subject to restrictions as set forth in subparagraphs (a)
 and (c) of the Commercial Computer Software - Restricted
 Rights clause in FAR 52.227-19.
  
 Gaussian, Inc.
 340 Quinnipiac St., Bldg. 40, Wallingford CT 06492
  
  
 ---------------------------------------------------------------
 Warning -- This program may not be used in any manner that
 competes with the business of Gaussian, Inc. or will provide
 assistance to any competitor of Gaussian, Inc.  The licensee
 of this program is prohibited from giving any competitor of
 Gaussian, Inc. access to this program.  By using this program,
 the user acknowledges that Gaussian, Inc. is engaged in the
 business of creating and licensing software in the field of
 computational chemistry and represents and warrants to the
 licensee that it is not a competitor of Gaussian, Inc. and that
 it will not use this program in any manner prohibited above.
 ---------------------------------------------------------------
  

 Cite this work as:
 Gaussian 09, Revision D.01,
 M. J. Frisch, G. W. Trucks, H. B. Schlegel, G. E. Scuseria, 
 M. A. Robb, J. R. Cheeseman, G. Scalmani, V. Barone, B. Mennucci, 
 G. A. Petersson, H. Nakatsuji, M. Caricato, X. Li, H. P. Hratchian, 
 A. F. Izmaylov, J. Bloino, G. Zheng, J. L. Sonnenberg, M. Hada, 
 M. Ehara, K. Toyota, R. Fukuda, J. Hasegawa, M. Ishida, T. Nakajima, 
 Y. Honda, O. Kitao, H. Nakai, T. Vreven, J. A. Montgomery, Jr., 
 J. E. Peralta, F. Ogliaro, M. Bearpark, J. J. Heyd, E. Brothers, 
 K. N. Kudin, V. N. Staroverov, T. Keith, R. Kobayashi, J. Normand, 
 K. Raghavachari, A. Rendell, J. C. Burant, S. S. Iyengar, J. Tomasi, 
 M. Cossi, N. Rega, J. M. Millam, M. Klene, J. E. Knox, J. B. Cross, 
 V. Bakken, C. Adamo, J. Jaramillo, R. Gomperts, R. E. Stratmann, 
 O. Yazyev, A. J. Austin, R. Cammi, C. Pomelli, J. W. Ochterski, 
 R. L. Martin, K. Morokuma, V. G. Zakrzewski, G. A. Voth, 
 P. Salvador, J. J. Dannenberg, S. Dapprich, A. D. Daniels, 
 O. Farkas, J. B. Foresman, J. V. Ortiz, J. Cioslowski, 
 and D. J. Fox, Gaussian, Inc., Wallingford CT, 2013.
 
 ******************************************
 Gaussian 09:  EM64L-G09RevD.01 24-Apr-2013
                26-Aug-2020 
 ******************************************
 %LindaWorkers=cib55-3
 %NProcShared=20
 Will use up to   20 processors via shared memory.
 %chk=PNPB_PS_opt.chk
 SetLPE:  input flags=""
 SetLPE:    new flags=" -nodelist 'cib55-3.ibnet'"
 Will use up to    1 processors via Linda.
 ----------------------------------------------------------------------
 #p opt=modredundant rb3lyp/6-31g(d,p) geom=connectivity empiricaldispe
 rsion=gd3
 ----------------------------------------------------------------------
 1/14=-1,18=120,19=15,26=3,38=1,57=2/1,3;
 2/9=110,12=2,17=6,18=5,40=1/2;
 3/5=1,6=6,7=101,11=2,16=1,25=1,30=1,71=1,74=-5,116=1,124=31/1,2,3;
 4//1;
 5/5=2,38=5/2;
 6/7=2,8=2,9=2,10=2,28=1/1;
 7//1,2,3,16;
 1/14=-1,18=20,19=15,26=3/3(2);
 2/9=110/2;
 99//99;
 2/9=110/2;
 3/5=1,6=6,7=101,11=2,16=1,25=1,30=1,71=1,74=-5,116=1,124=31/1,2,3;
 4/5=5,16=3,69=1/1;
 5/5=2,38=5/2;
 7//1,2,3,16;
 1/14=-1,18=20,19=15,26=3/3(-5);
 2/9=110/2;
 6/7=2,8=2,9=2,10=2,19=2,28=1/1;
 99/9=1/99;
 Leave Link    1 at Wed Aug 26 14:59:03 2020, MaxMem=           0 cpu:         1.9
 (Enter /global/apps/Gaussian/09.d01/l101.exe)
 -----
 TITLE
 -----
 Symbolic Z-matrix:
 Charge = -1 Multiplicity = 1
 C                    -3.77968   3.4115   -1.20454 
 C                    -2.55547   3.38863  -0.28254 
 N                    -4.71256   2.43857  -1.06488 
 C                    -2.36589   2.24836   0.72126 
 H                    -1.67708   3.45792  -0.93447 
 H                    -2.5951    4.34055   0.2638 
 O                    -3.90718   4.32954  -2.01807 
 C                    -5.90206   2.48047  -1.89566 
 H                    -4.56768   1.63525  -0.44243 
 H                    -1.60813   2.56216   1.45827 
 O                    -1.93442   1.04665   0.10891 
 H                    -3.29431   2.05613   1.27331 
 H                    -5.64363   2.50152  -2.9601 
 H                    -6.49667   3.37821  -1.68975 
 H                    -6.50795   1.59648  -1.68961 
 C                    -3.02555  -0.26697   0.1661 
 C                    -2.91187  -0.76105  -1.26952 
 O                    -2.32335  -1.19019   0.98631 
 O                    -4.14809   0.15459   0.60323 
 H                    -1.88312  -1.02651  -1.52196 
 H                    -3.54877  -1.64249  -1.39174 
 H                    -3.25865   0.02423  -1.94244 
 C                    -2.46027  -0.95962   2.38098 
 H                    -1.95508  -1.78942   2.88288 
 H                    -1.98457  -0.01525   2.67957 
 H                    -3.50971  -0.92439   2.6873 
 N                     0.45792   0.70452   0.83078 
 C                     1.39626   1.41007   0.20026 
 C                     1.0749    0.0193    1.85414 
 N                     2.58578   1.20525   0.77085 
 H                     1.21784   2.05071  -0.64929 
 C                     2.41489   0.32391   1.82405 
 H                     0.52427  -0.63315   2.512 
 C                     3.55013  -0.15965   2.67492 
 C                     4.3706    0.9726    3.31587 
 H                     3.1303   -0.80511   3.45486 
 H                     4.21842  -0.79194   2.07865 
 H                     5.21773   0.55519   3.86895 
 H                     3.76257   1.55907   4.01351 
 H                     4.7609    1.65385   2.55569 
 C                    -7.45992  -0.89279  -0.14831 
 C                    -6.91057  -2.26892   0.2148 
 H                    -6.74932  -0.08731   0.04583 
 H                    -8.37874  -0.71531   0.41858 
 H                    -7.73006  -0.89341  -1.20894 
 N                    -5.64501  -2.25871   0.69737 
 O                    -7.57945  -3.29246   0.06594 
 C                    -4.94301  -3.48235   1.03103 
 H                    -5.13901  -1.36928   0.74817 
 H                    -5.25701  -4.28207   0.35509 
 H                    -5.15394  -3.81463   2.05722 
 H                    -3.86956  -3.30865   0.93237 
 C                     5.68138   1.39485  -0.10951 
 C                     7.15234   1.82377  -0.11377 
 O                     4.82971   2.30199   0.1532 
 O                     5.40222   0.18489  -0.32606 
 C                     8.11089   0.803    -0.7248 
 H                     7.42365   2.02699   0.9313 
 H                     7.21333   2.79152  -0.62417 
 H                     9.14698   1.1557   -0.66925 
 H                     7.87336   0.61968  -1.77724 
 H                     8.04664  -0.15706  -0.20697 
 N                     3.57408  -1.78642  -1.36739 
 C                     2.13089  -1.88241  -1.23095 
 C                     4.23248  -2.55515  -2.29002 
 H                     4.05025  -0.9589   -1.00393 
 H                     1.83443  -1.61432  -0.21542 
 H                     1.59926  -1.22886  -1.93609 
 H                     1.82982  -2.90994  -1.43942 
 C                     5.72704  -2.28788  -2.39588 
 O                     3.67354  -3.43234  -2.94458 
 H                     5.94441  -1.21737  -2.40571 
 H                     6.2368   -2.70189  -1.51988 
 H                     6.10311  -2.76827  -3.29971 
 O                     5.78776  -2.23772   0.9599 
 H                     4.99544  -2.56256   0.50843 
 H                     5.8772   -1.34673   0.56636 
 H                     3.54317   1.66919   0.4558 
 H                    -0.61836   0.73866   0.53957 
 
 Add virtual bond connecting atoms H78        and N30        Dist= 2.10D+00.
 Add virtual bond connecting atoms H79        and N27        Dist= 2.11D+00.
 Add virtual bond connecting atoms H79        and O11        Dist= 2.68D+00.
 Add virtual bond connecting atoms H78        and O55        Dist= 2.77D+00.
 Add virtual bond connecting atoms C16        and O11        Dist= 3.23D+00.
 Add virtual bond connecting atoms O19        and H9         Dist= 3.52D+00.
 Add virtual bond connecting atoms H49        and O19        Dist= 3.45D+00.
 Add virtual bond connecting atoms H77        and O56        Dist= 3.47D+00.
 Add virtual bond connecting atoms H66        and O56        Dist= 3.58D+00.
 The following ModRedundant input section has been read:
 X      41 F                                                                   
 X      48 F                                                                   
 X       8 F                                                                   
 X       2 F                                                                   
 X      35 F                                                                   
 X      57 F                                                                   
 X      64 F                                                                   
 X      70 F                                                                   
 
 NAtoms=     79 NQM=       79 NQMF=       0 NMMI=      0 NMMIF=      0
                NMic=       0 NMicF=      0.
                    Isotopes and Nuclear Properties:
 (Nuclear quadrupole moments (NQMom) in fm**2, nuclear magnetic moments (NMagM)
  in nuclear magnetons)

  Atom         1           2           3           4           5           6           7           8           9          10
 IAtWgt=          12          12          14          12           1           1          16          12           1           1
 AtmWgt=  12.0000000  12.0000000  14.0030740  12.0000000   1.0078250   1.0078250  15.9949146  12.0000000   1.0078250   1.0078250
 NucSpn=           0           0           2           0           1           1           0           0           1           1
 AtZEff=   0.0000000   0.0000000   0.0000000   0.0000000   0.0000000   0.0000000   0.0000000   0.0000000   0.0000000   0.0000000
 NQMom=    0.0000000   0.0000000   2.0440000   0.0000000   0.0000000   0.0000000   0.0000000   0.0000000   0.0000000   0.0000000
 NMagM=    0.0000000   0.0000000   0.4037610   0.0000000   2.7928460   2.7928460   0.0000000   0.0000000   2.7928460   2.7928460
 AtZNuc=   6.0000000   6.0000000   7.0000000   6.0000000   1.0000000   1.0000000   8.0000000   6.0000000   1.0000000   1.0000000

  Atom        11          12          13          14          15          16          17          18          19          20
 IAtWgt=          16           1           1           1           1          12          12          16          16           1
 AtmWgt=  15.9949146   1.0078250   1.0078250   1.0078250   1.0078250  12.0000000  12.0000000  15.9949146  15.9949146   1.0078250
 NucSpn=           0           1           1           1           1           0           0           0           0           1
 AtZEff=   0.0000000   0.0000000   0.0000000   0.0000000   0.0000000   0.0000000   0.0000000   0.0000000   0.0000000   0.0000000
 NQMom=    0.0000000   0.0000000   0.0000000   0.0000000   0.0000000   0.0000000   0.0000000   0.0000000   0.0000000   0.0000000
 NMagM=    0.0000000   2.7928460   2.7928460   2.7928460   2.7928460   0.0000000   0.0000000   0.0000000   0.0000000   2.7928460
 AtZNuc=   8.0000000   1.0000000   1.0000000   1.0000000   1.0000000   6.0000000   6.0000000   8.0000000   8.0000000   1.0000000

  Atom        21          22          23          24          25          26          27          28          29          30
 IAtWgt=           1           1          12           1           1           1          14          12          12          14
 AtmWgt=   1.0078250   1.0078250  12.0000000   1.0078250   1.0078250   1.0078250  14.0030740  12.0000000  12.0000000  14.0030740
 NucSpn=           1           1           0           1           1           1           2           0           0           2
 AtZEff=   0.0000000   0.0000000   0.0000000   0.0000000   0.0000000   0.0000000   0.0000000   0.0000000   0.0000000   0.0000000
 NQMom=    0.0000000   0.0000000   0.0000000   0.0000000   0.0000000   0.0000000   2.0440000   0.0000000   0.0000000   2.0440000
 NMagM=    2.7928460   2.7928460   0.0000000   2.7928460   2.7928460   2.7928460   0.4037610   0.0000000   0.0000000   0.4037610
 AtZNuc=   1.0000000   1.0000000   6.0000000   1.0000000   1.0000000   1.0000000   7.0000000   6.0000000   6.0000000   7.0000000

  Atom        31          32          33          34          35          36          37          38          39          40
 IAtWgt=           1          12           1          12          12           1           1           1           1           1
 AtmWgt=   1.0078250  12.0000000   1.0078250  12.0000000  12.0000000   1.0078250   1.0078250   1.0078250   1.0078250   1.0078250
 NucSpn=           1           0           1           0           0           1           1           1           1           1
 AtZEff=   0.0000000   0.0000000   0.0000000   0.0000000   0.0000000   0.0000000   0.0000000   0.0000000   0.0000000   0.0000000
 NQMom=    0.0000000   0.0000000   0.0000000   0.0000000   0.0000000   0.0000000   0.0000000   0.0000000   0.0000000   0.0000000
 NMagM=    2.7928460   0.0000000   2.7928460   0.0000000   0.0000000   2.7928460   2.7928460   2.7928460   2.7928460   2.7928460
 AtZNuc=   1.0000000   6.0000000   1.0000000   6.0000000   6.0000000   1.0000000   1.0000000   1.0000000   1.0000000   1.0000000

  Atom        41          42          43          44          45          46          47          48          49          50
 IAtWgt=          12          12           1           1           1          14          16          12           1           1
 AtmWgt=  12.0000000  12.0000000   1.0078250   1.0078250   1.0078250  14.0030740  15.9949146  12.0000000   1.0078250   1.0078250
 NucSpn=           0           0           1           1           1           2           0           0           1           1
 AtZEff=   0.0000000   0.0000000   0.0000000   0.0000000   0.0000000   0.0000000   0.0000000   0.0000000   0.0000000   0.0000000
 NQMom=    0.0000000   0.0000000   0.0000000   0.0000000   0.0000000   2.0440000   0.0000000   0.0000000   0.0000000   0.0000000
 NMagM=    0.0000000   0.0000000   2.7928460   2.7928460   2.7928460   0.4037610   0.0000000   0.0000000   2.7928460   2.7928460
 AtZNuc=   6.0000000   6.0000000   1.0000000   1.0000000   1.0000000   7.0000000   8.0000000   6.0000000   1.0000000   1.0000000

  Atom        51          52          53          54          55          56          57          58          59          60
 IAtWgt=           1           1          12          12          16          16          12           1           1           1
 AtmWgt=   1.0078250   1.0078250  12.0000000  12.0000000  15.9949146  15.9949146  12.0000000   1.0078250   1.0078250   1.0078250
 NucSpn=           1           1           0           0           0           0           0           1           1           1
 AtZEff=   0.0000000   0.0000000   0.0000000   0.0000000   0.0000000   0.0000000   0.0000000   0.0000000   0.0000000   0.0000000
 NQMom=    0.0000000   0.0000000   0.0000000   0.0000000   0.0000000   0.0000000   0.0000000   0.0000000   0.0000000   0.0000000
 NMagM=    2.7928460   2.7928460   0.0000000   0.0000000   0.0000000   0.0000000   0.0000000   2.7928460   2.7928460   2.7928460
 AtZNuc=   1.0000000   1.0000000   6.0000000   6.0000000   8.0000000   8.0000000   6.0000000   1.0000000   1.0000000   1.0000000

  Atom        61          62          63          64          65          66          67          68          69          70
 IAtWgt=           1           1          14          12          12           1           1           1           1          12
 AtmWgt=   1.0078250   1.0078250  14.0030740  12.0000000  12.0000000   1.0078250   1.0078250   1.0078250   1.0078250  12.0000000
 NucSpn=           1           1           2           0           0           1           1           1           1           0
 AtZEff=   0.0000000   0.0000000   0.0000000   0.0000000   0.0000000   0.0000000   0.0000000   0.0000000   0.0000000   0.0000000
 NQMom=    0.0000000   0.0000000   2.0440000   0.0000000   0.0000000   0.0000000   0.0000000   0.0000000   0.0000000   0.0000000
 NMagM=    2.7928460   2.7928460   0.4037610   0.0000000   0.0000000   2.7928460   2.7928460   2.7928460   2.7928460   0.0000000
 AtZNuc=   1.0000000   1.0000000   7.0000000   6.0000000   6.0000000   1.0000000   1.0000000   1.0000000   1.0000000   6.0000000

  Atom        71          72          73          74          75          76          77          78          79
 IAtWgt=          16           1           1           1          16           1           1           1           1
 AtmWgt=  15.9949146   1.0078250   1.0078250   1.0078250  15.9949146   1.0078250   1.0078250   1.0078250   1.0078250
 NucSpn=           0           1           1           1           0           1           1           1           1
 AtZEff=   0.0000000   0.0000000   0.0000000   0.0000000   0.0000000   0.0000000   0.0000000   0.0000000   0.0000000
 NQMom=    0.0000000   0.0000000   0.0000000   0.0000000   0.0000000   0.0000000   0.0000000   0.0000000   0.0000000
 NMagM=    0.0000000   2.7928460   2.7928460   2.7928460   0.0000000   2.7928460   2.7928460   2.7928460   2.7928460
 AtZNuc=   8.0000000   1.0000000   1.0000000   1.0000000   8.0000000   1.0000000   1.0000000   1.0000000   1.0000000
 Leave Link  101 at Wed Aug 26 14:59:04 2020, MaxMem=    33554432 cpu:         5.6
 (Enter /global/apps/Gaussian/09.d01/l103.exe)

 GradGradGradGradGradGradGradGradGradGradGradGradGradGradGradGradGradGrad
 Berny optimization.
 Initialization pass.
                           ----------------------------
                           !    Initial Parameters    !
                           ! (Angstroms and Degrees)  !
 --------------------------                            --------------------------
 ! Name  Definition              Value          Derivative Info.                !
 --------------------------------------------------------------------------------
 ! X2    R(2,-1)                -2.5555         Frozen                          !
 ! Y2    R(2,-2)                 3.3886         Frozen                          !
 ! Z2    R(2,-3)                -0.2825         Frozen                          !
 ! X8    R(8,-1)                -5.9021         Frozen                          !
 ! Y8    R(8,-2)                 2.4805         Frozen                          !
 ! Z8    R(8,-3)                -1.8957         Frozen                          !
 ! X35   R(35,-1)                4.3706         Frozen                          !
 ! Y35   R(35,-2)                0.9726         Frozen                          !
 ! Z35   R(35,-3)                3.3159         Frozen                          !
 ! X41   R(41,-1)               -7.4599         Frozen                          !
 ! Y41   R(41,-2)               -0.8928         Frozen                          !
 ! Z41   R(41,-3)               -0.1483         Frozen                          !
 ! X48   R(48,-1)               -4.943          Frozen                          !
 ! Y48   R(48,-2)               -3.4824         Frozen                          !
 ! Z48   R(48,-3)                1.031          Frozen                          !
 ! X57   R(57,-1)                8.1109         Frozen                          !
 ! Y57   R(57,-2)                0.803          Frozen                          !
 ! Z57   R(57,-3)               -0.7248         Frozen                          !
 ! X64   R(64,-1)                2.1309         Frozen                          !
 ! Y64   R(64,-2)               -1.8824         Frozen                          !
 ! Z64   R(64,-3)               -1.2309         Frozen                          !
 ! X70   R(70,-1)                5.727          Frozen                          !
 ! Y70   R(70,-2)               -2.2879         Frozen                          !
 ! Z70   R(70,-3)               -2.3959         Frozen                          !
 ! R1    R(1,2)                  1.5327         estimate D2E/DX2                !
 ! R2    R(1,3)                  1.3551         estimate D2E/DX2                !
 ! R3    R(1,7)                  1.2332         estimate D2E/DX2                !
 ! R4    R(2,4)                  1.5309         estimate D2E/DX2                !
 ! R5    R(2,5)                  1.0961         estimate D2E/DX2                !
 ! R6    R(2,6)                  1.0983         estimate D2E/DX2                !
 ! R7    R(3,8)                  1.4515         estimate D2E/DX2                !
 ! R8    R(3,9)                  1.0265         estimate D2E/DX2                !
 ! R9    R(4,10)                 1.1027         estimate D2E/DX2                !
 ! R10   R(4,11)                 1.4161         estimate D2E/DX2                !
 ! R11   R(4,12)                 1.0971         estimate D2E/DX2                !
 ! R12   R(8,13)                 1.0956         estimate D2E/DX2                !
 ! R13   R(8,14)                 1.0963         estimate D2E/DX2                !
 ! R14   R(8,15)                 1.0913         estimate D2E/DX2                !
 ! R15   R(9,19)                 1.8606         estimate D2E/DX2                !
 ! R16   R(11,16)                1.7086         estimate D2E/DX2                !
 ! R17   R(11,79)                1.4186         estimate D2E/DX2                !
 ! R18   R(16,17)                1.5225         estimate D2E/DX2                !
 ! R19   R(16,18)                1.4206         estimate D2E/DX2                !
 ! R20   R(16,19)                1.2763         estimate D2E/DX2                !
 ! R21   R(17,20)                1.092          estimate D2E/DX2                !
 ! R22   R(17,21)                1.0943         estimate D2E/DX2                !
 ! R23   R(17,22)                1.0908         estimate D2E/DX2                !
 ! R24   R(18,23)                1.4202         estimate D2E/DX2                !
 ! R25   R(19,49)                1.8235         estimate D2E/DX2                !
 ! R26   R(23,24)                1.0935         estimate D2E/DX2                !
 ! R27   R(23,25)                1.0988         estimate D2E/DX2                !
 ! R28   R(23,26)                1.0938         estimate D2E/DX2                !
 ! R29   R(27,28)                1.3326         estimate D2E/DX2                !
 ! R30   R(27,29)                1.3775         estimate D2E/DX2                !
 ! R31   R(27,79)                1.1155         estimate D2E/DX2                !
 ! R32   R(28,30)                1.3351         estimate D2E/DX2                !
 ! R33   R(28,31)                1.0789         estimate D2E/DX2                !
 ! R34   R(29,32)                1.3745         estimate D2E/DX2                !
 ! R35   R(29,33)                1.0778         estimate D2E/DX2                !
 ! R36   R(30,32)                1.3839         estimate D2E/DX2                !
 ! R37   R(30,78)                1.1096         estimate D2E/DX2                !
 ! R38   R(32,34)                1.4989         estimate D2E/DX2                !
 ! R39   R(34,35)                1.5382         estimate D2E/DX2                !
 ! R40   R(34,36)                1.096          estimate D2E/DX2                !
 ! R41   R(34,37)                1.0963         estimate D2E/DX2                !
 ! R42   R(35,38)                1.0944         estimate D2E/DX2                !
 ! R43   R(35,39)                1.0956         estimate D2E/DX2                !
 ! R44   R(35,40)                1.0928         estimate D2E/DX2                !
 ! R45   R(41,42)                1.5256         estimate D2E/DX2                !
 ! R46   R(41,43)                1.0915         estimate D2E/DX2                !
 ! R47   R(41,44)                1.0941         estimate D2E/DX2                !
 ! R48   R(41,45)                1.0945         estimate D2E/DX2                !
 ! R49   R(42,46)                1.3545         estimate D2E/DX2                !
 ! R50   R(42,47)                1.2317         estimate D2E/DX2                !
 ! R51   R(46,48)                1.4496         estimate D2E/DX2                !
 ! R52   R(46,49)                1.0245         estimate D2E/DX2                !
 ! R53   R(48,50)                1.0932         estimate D2E/DX2                !
 ! R54   R(48,51)                1.0991         estimate D2E/DX2                !
 ! R55   R(48,52)                1.0919         estimate D2E/DX2                !
 ! R56   R(53,54)                1.5322         estimate D2E/DX2                !
 ! R57   R(53,55)                1.2717         estimate D2E/DX2                !
 ! R58   R(53,56)                1.2605         estimate D2E/DX2                !
 ! R59   R(54,57)                1.5278         estimate D2E/DX2                !
 ! R60   R(54,58)                1.0987         estimate D2E/DX2                !
 ! R61   R(54,59)                1.0958         estimate D2E/DX2                !
 ! R62   R(55,78)                1.4653         estimate D2E/DX2                !
 ! R63   R(56,66)                1.8962         estimate D2E/DX2                !
 ! R64   R(56,77)                1.8352         estimate D2E/DX2                !
 ! R65   R(57,60)                1.0959         estimate D2E/DX2                !
 ! R66   R(57,61)                1.0944         estimate D2E/DX2                !
 ! R67   R(57,62)                1.0927         estimate D2E/DX2                !
 ! R68   R(63,64)                1.4528         estimate D2E/DX2                !
 ! R69   R(63,65)                1.3696         estimate D2E/DX2                !
 ! R70   R(63,66)                1.0216         estimate D2E/DX2                !
 ! R71   R(64,67)                1.0914         estimate D2E/DX2                !
 ! R72   R(64,68)                1.0986         estimate D2E/DX2                !
 ! R73   R(64,69)                1.0908         estimate D2E/DX2                !
 ! R74   R(65,70)                1.522          estimate D2E/DX2                !
 ! R75   R(65,71)                1.229          estimate D2E/DX2                !
 ! R76   R(70,72)                1.0924         estimate D2E/DX2                !
 ! R77   R(70,73)                1.0948         estimate D2E/DX2                !
 ! R78   R(70,74)                1.0905         estimate D2E/DX2                !
 ! R79   R(75,76)                0.968          estimate D2E/DX2                !
 ! R80   R(75,77)                0.9781         estimate D2E/DX2                !
 ! A1    A(2,1,3)              118.4975         estimate D2E/DX2                !
 ! A2    A(2,1,7)              119.3735         estimate D2E/DX2                !
 ! A3    A(3,1,7)              122.0919         estimate D2E/DX2                !
 ! A4    A(1,2,4)              120.2943         estimate D2E/DX2                !
 ! A5    A(1,2,5)              106.3404         estimate D2E/DX2                !
 ! A6    A(1,2,6)              104.9208         estimate D2E/DX2                !
 ! A7    A(4,2,5)              109.745          estimate D2E/DX2                !
 ! A8    A(4,2,6)              108.897          estimate D2E/DX2                !
 ! A9    A(5,2,6)              105.6637         estimate D2E/DX2                !
 ! A10   A(1,3,8)              118.9752         estimate D2E/DX2                !
 ! A11   A(1,3,9)              121.8155         estimate D2E/DX2                !
 ! A12   A(8,3,9)              119.0328         estimate D2E/DX2                !
 ! A13   A(2,4,10)             108.1428         estimate D2E/DX2                !
 ! A14   A(2,4,11)             112.7224         estimate D2E/DX2                !
 ! A15   A(2,4,12)             110.8321         estimate D2E/DX2                !
 ! A16   A(10,4,11)            108.733          estimate D2E/DX2                !
 ! A17   A(10,4,12)            107.1623         estimate D2E/DX2                !
 ! A18   A(11,4,12)            109.0712         estimate D2E/DX2                !
 ! A19   A(3,8,13)             111.3056         estimate D2E/DX2                !
 ! A20   A(3,8,14)             111.1381         estimate D2E/DX2                !
 ! A21   A(3,8,15)             108.8762         estimate D2E/DX2                !
 ! A22   A(13,8,14)            107.1388         estimate D2E/DX2                !
 ! A23   A(13,8,15)            109.2665         estimate D2E/DX2                !
 ! A24   A(14,8,15)            109.07           estimate D2E/DX2                !
 ! A25   A(4,11,16)            116.3197         estimate D2E/DX2                !
 ! A26   A(4,11,79)            109.612          estimate D2E/DX2                !
 ! A27   A(16,11,79)           114.5425         estimate D2E/DX2                !
 ! A28   A(11,16,17)            99.8023         estimate D2E/DX2                !
 ! A29   A(11,16,18)           101.7301         estimate D2E/DX2                !
 ! A30   A(11,16,19)           108.6144         estimate D2E/DX2                !
 ! A31   A(17,16,18)           107.2537         estimate D2E/DX2                !
 ! A32   A(17,16,19)           119.7237         estimate D2E/DX2                !
 ! A33   A(18,16,19)           116.8499         estimate D2E/DX2                !
 ! A34   A(16,17,20)           111.5434         estimate D2E/DX2                !
 ! A35   A(16,17,21)           108.8594         estimate D2E/DX2                !
 ! A36   A(16,17,22)           108.9259         estimate D2E/DX2                !
 ! A37   A(20,17,21)           109.0665         estimate D2E/DX2                !
 ! A38   A(20,17,22)           109.3845         estimate D2E/DX2                !
 ! A39   A(21,17,22)           109.0231         estimate D2E/DX2                !
 ! A40   A(16,18,23)           114.4446         estimate D2E/DX2                !
 ! A41   A(9,19,16)            105.5878         estimate D2E/DX2                !
 ! A42   A(9,19,49)            125.9558         estimate D2E/DX2                !
 ! A43   A(16,19,49)           103.2472         estimate D2E/DX2                !
 ! A44   A(18,23,24)           106.4392         estimate D2E/DX2                !
 ! A45   A(18,23,25)           111.3864         estimate D2E/DX2                !
 ! A46   A(18,23,26)           111.8852         estimate D2E/DX2                !
 ! A47   A(24,23,25)           109.1159         estimate D2E/DX2                !
 ! A48   A(24,23,26)           109.8256         estimate D2E/DX2                !
 ! A49   A(25,23,26)           108.1556         estimate D2E/DX2                !
 ! A50   A(28,27,29)           107.427          estimate D2E/DX2                !
 ! A51   A(28,27,79)           122.6602         estimate D2E/DX2                !
 ! A52   A(29,27,79)           129.8912         estimate D2E/DX2                !
 ! A53   A(27,28,30)           110.1164         estimate D2E/DX2                !
 ! A54   A(27,28,31)           124.7859         estimate D2E/DX2                !
 ! A55   A(30,28,31)           125.0975         estimate D2E/DX2                !
 ! A56   A(27,29,32)           108.0691         estimate D2E/DX2                !
 ! A57   A(27,29,33)           121.7189         estimate D2E/DX2                !
 ! A58   A(32,29,33)           130.2081         estimate D2E/DX2                !
 ! A59   A(28,30,32)           108.2361         estimate D2E/DX2                !
 ! A60   A(28,30,78)           125.6823         estimate D2E/DX2                !
 ! A61   A(32,30,78)           126.0804         estimate D2E/DX2                !
 ! A62   A(29,32,30)           106.1508         estimate D2E/DX2                !
 ! A63   A(29,32,34)           130.8791         estimate D2E/DX2                !
 ! A64   A(30,32,34)           122.9535         estimate D2E/DX2                !
 ! A65   A(32,34,35)           113.7705         estimate D2E/DX2                !
 ! A66   A(32,34,36)           107.6884         estimate D2E/DX2                !
 ! A67   A(32,34,37)           109.8164         estimate D2E/DX2                !
 ! A68   A(35,34,36)           109.9568         estimate D2E/DX2                !
 ! A69   A(35,34,37)           109.0274         estimate D2E/DX2                !
 ! A70   A(36,34,37)           106.3129         estimate D2E/DX2                !
 ! A71   A(34,35,38)           110.0423         estimate D2E/DX2                !
 ! A72   A(34,35,39)           111.3052         estimate D2E/DX2                !
 ! A73   A(34,35,40)           111.0698         estimate D2E/DX2                !
 ! A74   A(38,35,39)           108.1762         estimate D2E/DX2                !
 ! A75   A(38,35,40)           108.2309         estimate D2E/DX2                !
 ! A76   A(39,35,40)           107.9057         estimate D2E/DX2                !
 ! A77   A(42,41,43)           112.885          estimate D2E/DX2                !
 ! A78   A(42,41,44)           108.9899         estimate D2E/DX2                !
 ! A79   A(42,41,45)           108.6035         estimate D2E/DX2                !
 ! A80   A(43,41,44)           109.5637         estimate D2E/DX2                !
 ! A81   A(43,41,45)           109.4789         estimate D2E/DX2                !
 ! A82   A(44,41,45)           107.1524         estimate D2E/DX2                !
 ! A83   A(41,42,46)           114.4851         estimate D2E/DX2                !
 ! A84   A(41,42,47)           121.6857         estimate D2E/DX2                !
 ! A85   A(46,42,47)           123.8281         estimate D2E/DX2                !
 ! A86   A(42,46,48)           121.8777         estimate D2E/DX2                !
 ! A87   A(42,46,49)           119.0557         estimate D2E/DX2                !
 ! A88   A(48,46,49)           118.8299         estimate D2E/DX2                !
 ! A89   A(46,48,50)           109.6392         estimate D2E/DX2                !
 ! A90   A(46,48,51)           112.1586         estimate D2E/DX2                !
 ! A91   A(46,48,52)           108.7234         estimate D2E/DX2                !
 ! A92   A(50,48,51)           107.5195         estimate D2E/DX2                !
 ! A93   A(50,48,52)           110.0528         estimate D2E/DX2                !
 ! A94   A(51,48,52)           108.7317         estimate D2E/DX2                !
 ! A95   A(54,53,55)           116.3481         estimate D2E/DX2                !
 ! A96   A(54,53,56)           118.7405         estimate D2E/DX2                !
 ! A97   A(55,53,56)           124.8826         estimate D2E/DX2                !
 ! A98   A(53,54,57)           114.6077         estimate D2E/DX2                !
 ! A99   A(53,54,58)           106.6307         estimate D2E/DX2                !
 ! A100  A(53,54,59)           107.5746         estimate D2E/DX2                !
 ! A101  A(57,54,58)           110.4314         estimate D2E/DX2                !
 ! A102  A(57,54,59)           111.6447         estimate D2E/DX2                !
 ! A103  A(58,54,59)           105.4241         estimate D2E/DX2                !
 ! A104  A(53,55,78)           108.8207         estimate D2E/DX2                !
 ! A105  A(53,56,66)           142.9721         estimate D2E/DX2                !
 ! A106  A(53,56,77)           131.32           estimate D2E/DX2                !
 ! A107  A(66,56,77)            81.6601         estimate D2E/DX2                !
 ! A108  A(54,57,60)           110.9692         estimate D2E/DX2                !
 ! A109  A(54,57,61)           111.1228         estimate D2E/DX2                !
 ! A110  A(54,57,62)           111.1373         estimate D2E/DX2                !
 ! A111  A(60,57,61)           107.9303         estimate D2E/DX2                !
 ! A112  A(60,57,62)           108.321          estimate D2E/DX2                !
 ! A113  A(61,57,62)           107.2058         estimate D2E/DX2                !
 ! A114  A(64,63,65)           120.2477         estimate D2E/DX2                !
 ! A115  A(64,63,66)           118.8902         estimate D2E/DX2                !
 ! A116  A(65,63,66)           118.0525         estimate D2E/DX2                !
 ! A117  A(63,64,67)           109.9382         estimate D2E/DX2                !
 ! A118  A(63,64,68)           112.4029         estimate D2E/DX2                !
 ! A119  A(63,64,69)           108.5698         estimate D2E/DX2                !
 ! A120  A(67,64,68)           108.6425         estimate D2E/DX2                !
 ! A121  A(67,64,69)           109.527          estimate D2E/DX2                !
 ! A122  A(68,64,69)           107.7066         estimate D2E/DX2                !
 ! A123  A(63,65,70)           114.8579         estimate D2E/DX2                !
 ! A124  A(63,65,71)           122.7383         estimate D2E/DX2                !
 ! A125  A(70,65,71)           122.3388         estimate D2E/DX2                !
 ! A126  A(56,66,63)           161.4655         estimate D2E/DX2                !
 ! A127  A(65,70,72)           111.5997         estimate D2E/DX2                !
 ! A128  A(65,70,73)           109.5831         estimate D2E/DX2                !
 ! A129  A(65,70,74)           108.5995         estimate D2E/DX2                !
 ! A130  A(72,70,73)           106.5663         estimate D2E/DX2                !
 ! A131  A(72,70,74)           110.8319         estimate D2E/DX2                !
 ! A132  A(73,70,74)           109.6343         estimate D2E/DX2                !
 ! A133  A(76,75,77)           101.1204         estimate D2E/DX2                !
 ! A134  A(56,77,75)           158.7836         estimate D2E/DX2                !
 ! A135  L(3,9,19,2,-1)        176.8152         estimate D2E/DX2                !
 ! A136  L(19,49,46,21,-1)     171.9943         estimate D2E/DX2                !
 ! A137  L(30,78,55,35,-1)     175.7767         estimate D2E/DX2                !
 ! A138  L(11,79,27,24,-1)     189.6613         estimate D2E/DX2                !
 ! A139  L(3,9,19,2,-2)        184.7994         estimate D2E/DX2                !
 ! A140  L(19,49,46,21,-2)     181.5319         estimate D2E/DX2                !
 ! A141  L(30,78,55,35,-2)     181.8035         estimate D2E/DX2                !
 ! A142  L(11,79,27,24,-2)     185.6555         estimate D2E/DX2                !
 ! D1    D(3,1,2,4)              3.0448         estimate D2E/DX2                !
 ! D2    D(3,1,2,5)            128.4263         estimate D2E/DX2                !
 ! D3    D(3,1,2,6)           -119.9014         estimate D2E/DX2                !
 ! D4    D(7,1,2,4)           -179.1235         estimate D2E/DX2                !
 ! D5    D(7,1,2,5)            -53.742          estimate D2E/DX2                !
 ! D6    D(7,1,2,6)             57.9303         estimate D2E/DX2                !
 ! D7    D(2,1,3,8)            177.5468         estimate D2E/DX2                !
 ! D8    D(2,1,3,9)             -7.3296         estimate D2E/DX2                !
 ! D9    D(7,1,3,8)             -0.2228         estimate D2E/DX2                !
 ! D10   D(7,1,3,9)            174.9008         estimate D2E/DX2                !
 ! D11   D(1,2,4,10)          -164.2259         estimate D2E/DX2                !
 ! D12   D(1,2,4,11)            75.5344         estimate D2E/DX2                !
 ! D13   D(1,2,4,12)           -47.0375         estimate D2E/DX2                !
 ! D14   D(5,2,4,10)            72.002          estimate D2E/DX2                !
 ! D15   D(5,2,4,11)           -48.2377         estimate D2E/DX2                !
 ! D16   D(5,2,4,12)          -170.8096         estimate D2E/DX2                !
 ! D17   D(6,2,4,10)           -43.2164         estimate D2E/DX2                !
 ! D18   D(6,2,4,11)          -163.4561         estimate D2E/DX2                !
 ! D19   D(6,2,4,12)            73.9721         estimate D2E/DX2                !
 ! D20   D(1,3,8,13)            56.2909         estimate D2E/DX2                !
 ! D21   D(1,3,8,14)           -63.0436         estimate D2E/DX2                !
 ! D22   D(1,3,8,15)           176.7977         estimate D2E/DX2                !
 ! D23   D(9,3,8,13)          -118.9701         estimate D2E/DX2                !
 ! D24   D(9,3,8,14)           121.6953         estimate D2E/DX2                !
 ! D25   D(9,3,8,15)             1.5367         estimate D2E/DX2                !
 ! D26   D(1,3,19,16)          -52.0434         estimate D2E/DX2                !
 ! D27   D(1,3,19,49)         -170.5751         estimate D2E/DX2                !
 ! D28   D(8,3,19,16)          119.7125         estimate D2E/DX2                !
 ! D29   D(8,3,19,49)            1.1808         estimate D2E/DX2                !
 ! D30   D(2,4,11,16)         -114.6045         estimate D2E/DX2                !
 ! D31   D(2,4,11,79)          113.467          estimate D2E/DX2                !
 ! D32   D(10,4,11,16)         125.4957         estimate D2E/DX2                !
 ! D33   D(10,4,11,79)          -6.4329         estimate D2E/DX2                !
 ! D34   D(12,4,11,16)           8.9494         estimate D2E/DX2                !
 ! D35   D(12,4,11,79)        -122.9792         estimate D2E/DX2                !
 ! D36   D(4,11,16,17)         135.5403         estimate D2E/DX2                !
 ! D37   D(4,11,16,18)        -114.3821         estimate D2E/DX2                !
 ! D38   D(4,11,16,19)           9.445          estimate D2E/DX2                !
 ! D39   D(79,11,16,17)        -94.8516         estimate D2E/DX2                !
 ! D40   D(79,11,16,18)         15.226          estimate D2E/DX2                !
 ! D41   D(79,11,16,19)        139.053          estimate D2E/DX2                !
 ! D42   D(4,11,27,28)         -79.2238         estimate D2E/DX2                !
 ! D43   D(4,11,27,29)          93.3443         estimate D2E/DX2                !
 ! D44   D(16,11,27,28)        146.7088         estimate D2E/DX2                !
 ! D45   D(16,11,27,29)        -40.7231         estimate D2E/DX2                !
 ! D46   D(11,16,17,20)         58.055          estimate D2E/DX2                !
 ! D47   D(11,16,17,21)        178.4512         estimate D2E/DX2                !
 ! D48   D(11,16,17,22)        -62.7817         estimate D2E/DX2                !
 ! D49   D(18,16,17,20)        -47.5911         estimate D2E/DX2                !
 ! D50   D(18,16,17,21)         72.8051         estimate D2E/DX2                !
 ! D51   D(18,16,17,22)       -168.4278         estimate D2E/DX2                !
 ! D52   D(19,16,17,20)        176.1962         estimate D2E/DX2                !
 ! D53   D(19,16,17,21)        -63.4076         estimate D2E/DX2                !
 ! D54   D(19,16,17,22)         55.3595         estimate D2E/DX2                !
 ! D55   D(11,16,18,23)         82.6191         estimate D2E/DX2                !
 ! D56   D(17,16,18,23)       -173.1067         estimate D2E/DX2                !
 ! D57   D(19,16,18,23)        -35.4484         estimate D2E/DX2                !
 ! D58   D(11,16,19,9)          51.1673         estimate D2E/DX2                !
 ! D59   D(11,16,19,49)       -175.0503         estimate D2E/DX2                !
 ! D60   D(17,16,19,9)         -62.3588         estimate D2E/DX2                !
 ! D61   D(17,16,19,49)         71.4235         estimate D2E/DX2                !
 ! D62   D(18,16,19,9)         165.432          estimate D2E/DX2                !
 ! D63   D(18,16,19,49)        -60.7856         estimate D2E/DX2                !
 ! D64   D(16,18,23,24)        174.7086         estimate D2E/DX2                !
 ! D65   D(16,18,23,25)        -66.4596         estimate D2E/DX2                !
 ! D66   D(16,18,23,26)         54.7349         estimate D2E/DX2                !
 ! D67   D(9,19,46,42)         -16.3841         estimate D2E/DX2                !
 ! D68   D(9,19,46,48)         152.4411         estimate D2E/DX2                !
 ! D69   D(16,19,46,42)       -134.7035         estimate D2E/DX2                !
 ! D70   D(16,19,46,48)         34.1217         estimate D2E/DX2                !
 ! D71   D(29,27,28,30)          0.1575         estimate D2E/DX2                !
 ! D72   D(29,27,28,31)       -179.9964         estimate D2E/DX2                !
 ! D73   D(79,27,28,30)        178.6194         estimate D2E/DX2                !
 ! D74   D(79,27,28,31)         -1.5346         estimate D2E/DX2                !
 ! D75   D(28,27,29,32)         -0.2506         estimate D2E/DX2                !
 ! D76   D(28,27,29,33)       -179.5969         estimate D2E/DX2                !
 ! D77   D(79,27,29,32)       -178.5628         estimate D2E/DX2                !
 ! D78   D(79,27,29,33)          2.0909         estimate D2E/DX2                !
 ! D79   D(27,28,30,32)         -0.004          estimate D2E/DX2                !
 ! D80   D(27,28,30,78)       -179.6341         estimate D2E/DX2                !
 ! D81   D(31,28,30,32)       -179.8495         estimate D2E/DX2                !
 ! D82   D(31,28,30,78)          0.5204         estimate D2E/DX2                !
 ! D83   D(27,29,32,30)          0.2445         estimate D2E/DX2                !
 ! D84   D(27,29,32,34)       -178.2755         estimate D2E/DX2                !
 ! D85   D(33,29,32,30)        179.5164         estimate D2E/DX2                !
 ! D86   D(33,29,32,34)          0.9964         estimate D2E/DX2                !
 ! D87   D(28,30,32,29)         -0.1504         estimate D2E/DX2                !
 ! D88   D(28,30,32,34)        178.516          estimate D2E/DX2                !
 ! D89   D(78,30,32,29)        179.4778         estimate D2E/DX2                !
 ! D90   D(78,30,32,34)         -1.8558         estimate D2E/DX2                !
 ! D91   D(28,30,55,53)       -123.8476         estimate D2E/DX2                !
 ! D92   D(32,30,55,53)         59.229          estimate D2E/DX2                !
 ! D93   D(29,32,34,35)       -126.3595         estimate D2E/DX2                !
 ! D94   D(29,32,34,36)         -4.2243         estimate D2E/DX2                !
 ! D95   D(29,32,34,37)        111.1354         estimate D2E/DX2                !
 ! D96   D(30,32,34,35)         55.3347         estimate D2E/DX2                !
 ! D97   D(30,32,34,36)        177.47           estimate D2E/DX2                !
 ! D98   D(30,32,34,37)        -67.1704         estimate D2E/DX2                !
 ! D99   D(32,34,35,38)       -176.4055         estimate D2E/DX2                !
 ! D100  D(32,34,35,39)         63.682          estimate D2E/DX2                !
 ! D101  D(32,34,35,40)        -56.5761         estimate D2E/DX2                !
 ! D102  D(36,34,35,38)         62.7208         estimate D2E/DX2                !
 ! D103  D(36,34,35,39)        -57.1917         estimate D2E/DX2                !
 ! D104  D(36,34,35,40)       -177.4497         estimate D2E/DX2                !
 ! D105  D(37,34,35,38)        -53.4675         estimate D2E/DX2                !
 ! D106  D(37,34,35,39)       -173.38           estimate D2E/DX2                !
 ! D107  D(37,34,35,40)         66.362          estimate D2E/DX2                !
 ! D108  D(43,41,42,46)         -0.645          estimate D2E/DX2                !
 ! D109  D(43,41,42,47)        179.7168         estimate D2E/DX2                !
 ! D110  D(44,41,42,46)       -122.6265         estimate D2E/DX2                !
 ! D111  D(44,41,42,47)         57.7352         estimate D2E/DX2                !
 ! D112  D(45,41,42,46)        120.9553         estimate D2E/DX2                !
 ! D113  D(45,41,42,47)        -58.683          estimate D2E/DX2                !
 ! D114  D(41,42,46,48)       -176.9361         estimate D2E/DX2                !
 ! D115  D(41,42,46,49)         -2.5933         estimate D2E/DX2                !
 ! D116  D(47,42,46,48)          2.6933         estimate D2E/DX2                !
 ! D117  D(47,42,46,49)        177.0362         estimate D2E/DX2                !
 ! D118  D(42,46,48,50)         32.8781         estimate D2E/DX2                !
 ! D119  D(42,46,48,51)        -86.4915         estimate D2E/DX2                !
 ! D120  D(42,46,48,52)        153.2333         estimate D2E/DX2                !
 ! D121  D(49,46,48,50)       -141.4771         estimate D2E/DX2                !
 ! D122  D(49,46,48,51)         99.1533         estimate D2E/DX2                !
 ! D123  D(49,46,48,52)        -21.1219         estimate D2E/DX2                !
 ! D124  D(55,53,54,57)       -167.2306         estimate D2E/DX2                !
 ! D125  D(55,53,54,58)         70.2544         estimate D2E/DX2                !
 ! D126  D(55,53,54,59)        -42.4371         estimate D2E/DX2                !
 ! D127  D(56,53,54,57)         14.6272         estimate D2E/DX2                !
 ! D128  D(56,53,54,58)       -107.8878         estimate D2E/DX2                !
 ! D129  D(56,53,54,59)        139.4207         estimate D2E/DX2                !
 ! D130  D(54,53,55,78)       -165.4941         estimate D2E/DX2                !
 ! D131  D(56,53,55,78)         12.5201         estimate D2E/DX2                !
 ! D132  D(54,53,56,66)       -152.5251         estimate D2E/DX2                !
 ! D133  D(54,53,56,77)         59.8266         estimate D2E/DX2                !
 ! D134  D(55,53,56,66)         29.5044         estimate D2E/DX2                !
 ! D135  D(55,53,56,77)       -118.1439         estimate D2E/DX2                !
 ! D136  D(53,54,57,60)       -178.2441         estimate D2E/DX2                !
 ! D137  D(53,54,57,61)         61.6565         estimate D2E/DX2                !
 ! D138  D(53,54,57,62)        -57.6411         estimate D2E/DX2                !
 ! D139  D(58,54,57,60)        -57.8106         estimate D2E/DX2                !
 ! D140  D(58,54,57,61)       -177.91           estimate D2E/DX2                !
 ! D141  D(58,54,57,62)         62.7924         estimate D2E/DX2                !
 ! D142  D(59,54,57,60)         59.1369         estimate D2E/DX2                !
 ! D143  D(59,54,57,61)        -60.9625         estimate D2E/DX2                !
 ! D144  D(59,54,57,62)        179.7399         estimate D2E/DX2                !
 ! D145  D(53,56,66,63)        165.0957         estimate D2E/DX2                !
 ! D146  D(77,56,66,63)        -38.8697         estimate D2E/DX2                !
 ! D147  D(53,56,77,75)        140.5968         estimate D2E/DX2                !
 ! D148  D(66,56,77,75)        -20.3957         estimate D2E/DX2                !
 ! D149  D(65,63,64,67)        152.9988         estimate D2E/DX2                !
 ! D150  D(65,63,64,68)        -85.8473         estimate D2E/DX2                !
 ! D151  D(65,63,64,69)         33.1998         estimate D2E/DX2                !
 ! D152  D(66,63,64,67)        -46.3442         estimate D2E/DX2                !
 ! D153  D(66,63,64,68)         74.8097         estimate D2E/DX2                !
 ! D154  D(66,63,64,69)       -166.1432         estimate D2E/DX2                !
 ! D155  D(64,63,65,70)        175.9685         estimate D2E/DX2                !
 ! D156  D(64,63,65,71)         -6.9023         estimate D2E/DX2                !
 ! D157  D(66,63,65,70)         15.1527         estimate D2E/DX2                !
 ! D158  D(66,63,65,71)       -167.7181         estimate D2E/DX2                !
 ! D159  D(64,63,66,56)        157.1536         estimate D2E/DX2                !
 ! D160  D(65,63,66,56)        -41.7646         estimate D2E/DX2                !
 ! D161  D(63,65,70,72)        -44.3689         estimate D2E/DX2                !
 ! D162  D(63,65,70,73)         73.4279         estimate D2E/DX2                !
 ! D163  D(63,65,70,74)       -166.8351         estimate D2E/DX2                !
 ! D164  D(71,65,70,72)        138.4891         estimate D2E/DX2                !
 ! D165  D(71,65,70,73)       -103.7141         estimate D2E/DX2                !
 ! D166  D(71,65,70,74)         16.0229         estimate D2E/DX2                !
 ! D167  D(76,75,77,56)         17.6543         estimate D2E/DX2                !
 --------------------------------------------------------------------------------
 Trust Radius=3.00D-01 FncErr=1.00D-07 GrdErr=1.00D-06
 Number of steps in this run=    423 maximum allowed number of steps=    474.
 GradGradGradGradGradGradGradGradGradGradGradGradGradGradGradGradGradGrad

 Leave Link  103 at Wed Aug 26 14:59:04 2020, MaxMem=    33554432 cpu:         0.5
 (Enter /global/apps/Gaussian/09.d01/l202.exe)
 Stoichiometry    C21H44N5O9(1-)
 Framework group  C1[X(C21H44N5O9)]
 Deg. of freedom   231
 Full point group                 C1      NOp   1
 Largest Abelian subgroup         C1      NOp   1
 Largest concise Abelian subgroup C1      NOp   1
                         Standard orientation:                         
 ---------------------------------------------------------------------
 Center     Atomic      Atomic             Coordinates (Angstroms)
 Number     Number       Type             X           Y           Z
 ---------------------------------------------------------------------
      1          6           0       -3.800995    3.417512   -1.224541
      2          6           0       -2.577165    3.395266   -0.302024
      3          7           0       -4.734423    2.445235   -1.083928
      4          6           0       -2.388548    2.256265    0.703391
      5          1           0       -1.698486    3.463237   -0.953703
      6          1           0       -2.616523    4.347954    0.243010
      7          8           0       -3.927711    4.334513   -2.039359
      8          6           0       -5.923579    2.486619   -1.915228
      9          1           0       -4.590193    1.642687   -0.460338
     10          1           0       -1.630927    2.570686    1.440274
     11          8           0       -1.957446    1.053513    0.092837
     12          1           0       -3.317284    2.065249    1.255334
     13          1           0       -5.664721    2.506098   -2.979600
     14          1           0       -6.517811    3.384930   -1.710771
     15          1           0       -6.529995    1.603211   -1.708226
     16          6           0       -3.049262   -0.259476    0.151378
     17          6           0       -2.935265   -0.755563   -1.283525
     18          8           0       -2.347850   -1.181942    0.973114
     19          8           0       -4.171759    0.163238    0.587494
     20          1           0       -1.906552   -1.021886   -1.535205
     21          1           0       -3.572565   -1.636844   -1.404803
     22          1           0       -3.281391    0.028982   -1.957646
     23          6           0       -2.485204   -0.949414    2.367414
     24          1           0       -1.980630   -1.778793    2.870641
     25          1           0       -2.009144   -0.004881    2.664908
     26          1           0       -3.534742   -0.913244    2.673278
     27          7           0        0.434429    0.711150    0.816112
     28          6           0        1.373378    1.415373    0.185004
     29          6           0        1.050668    0.027009    1.840637
     30          7           0        2.562566    1.210732    0.756337
     31          1           0        1.195612    2.054956   -0.665481
     32          6           0        2.390825    0.330901    1.810670
     33          1           0        0.499446   -0.624270    2.499170
     34          6           0        3.525486   -0.152074    2.662636
     35          6           0        4.346277    0.980628    3.302376
     36          1           0        3.105018   -0.796273    3.443284
     37          1           0        4.193691   -0.785515    2.067484
     38          1           0        5.192976    0.563540    3.856354
     39          1           0        3.738261    1.568349    3.998981
     40          1           0        4.737212    1.660644    2.541422
     41          6           0       -7.483829   -0.883490   -0.163934
     42          6           0       -6.935315   -2.259400    0.201258
     43          1           0       -6.772894   -0.078109    0.029396
     44          1           0       -8.402783   -0.704779    0.402353
     45          1           0       -7.753552   -0.885413   -1.224668
     46          7           0       -5.669933   -2.249177    0.684312
     47          8           0       -7.604651   -3.282808    0.053518
     48          6           0       -4.968691   -3.472722    1.019910
     49          1           0       -5.163506   -1.359938    0.734105
     50          1           0       -5.282824   -4.273199    0.344928
     51          1           0       -5.180186   -3.803506    2.046464
     52          1           0       -3.895113   -3.299698    0.921433
     53          6           0        5.658606    1.397578   -0.123052
     54          6           0        7.129790    1.825746   -0.127315
     55          8           0        4.807293    2.305495    0.138087
     56          8           0        5.378922    0.187464   -0.338081
     57          6           0        8.088060    0.803666   -0.736590
     58          1           0        7.400790    2.030245    0.917583
     59          1           0        7.191470    2.792774   -0.639008
     60          1           0        9.124312    1.155920   -0.681105
     61          1           0        7.850858    0.619043   -1.788874
     62          1           0        8.023121   -0.155656   -0.217485
     63          7           0        3.550203   -1.784331   -1.377456
     64          6           0        2.106905   -1.879410   -1.241453
     65          6           0        4.208575   -2.554642   -2.298788
     66          1           0        4.026643   -0.956560   -1.014927
     67          1           0        1.810181   -1.609797   -0.226408
     68          1           0        1.575886   -1.226548   -1.947683
     69          1           0        1.805405   -2.907067   -1.448648
     70          6           0        5.703308   -2.288269   -2.404416
     71          8           0        3.649447   -3.432440   -2.952381
     72          1           0        5.921222   -1.217887   -2.415612
     73          1           0        6.212518   -2.701348   -1.527658
     74          1           0        6.079492   -2.770074   -3.307445
     75          8           0        5.762737   -2.233593    0.951317
     76          1           0        4.970432   -2.558647    0.499973
     77          1           0        5.852785   -1.343182    0.556605
     78          1           0        3.520322    1.673760    0.441041
     79          1           0       -0.641709    0.745437    0.524427
 ---------------------------------------------------------------------
 Rotational constants (GHZ):      0.1528596      0.0424831      0.0387811
 Leave Link  202 at Wed Aug 26 14:59:04 2020, MaxMem=    33554432 cpu:         1.1
 (Enter /global/apps/Gaussian/09.d01/l301.exe)
 Standard basis: 6-31G(d,p) (6D, 7F)
 Ernie: Thresh=  0.10000D-02 Tol=  0.10000D-05 Strict=F.
 There are   745 symmetry adapted cartesian basis functions of A   symmetry.
 There are   745 symmetry adapted basis functions of A   symmetry.
   745 basis functions,  1288 primitive gaussians,   745 cartesian basis functions
   139 alpha electrons      139 beta electrons
       nuclear repulsion energy      4049.4199496079 Hartrees.
 IExCor=  402 DFT=T Ex+Corr=B3LYP ExCW=0 ScaHFX=  0.200000
 ScaDFX=  0.800000  0.720000  1.000000  0.810000 ScalE2=  1.000000  1.000000
 IRadAn=      0 IRanWt=     -1 IRanGd=            0 ICorTp=0 IEmpDi=131
 NAtoms=   79 NActive=   79 NUniq=   79 SFac= 1.00D+00 NAtFMM=   60 NAOKFM=T Big=T
 Integral buffers will be    131072 words long.
 Raffenetti 2 integral format.
 Two-electron integral symmetry is turned on.
 R6Disp:  Grimme-D3 Dispersion energy=       -0.0954003871 Hartrees.
 Nuclear repulsion after empirical dispersion term =     4049.3245492208 Hartrees.
 Leave Link  301 at Wed Aug 26 14:59:04 2020, MaxMem=    33554432 cpu:         2.3
 (Enter /global/apps/Gaussian/09.d01/l302.exe)
 NPDir=0 NMtPBC=     1 NCelOv=     1 NCel=       1 NClECP=     1 NCelD=      1
         NCelK=      1 NCelE2=     1 NClLst=     1 CellRange=     0.0.
 One-electron integrals computed using PRISM.
 PrsmSu:  requested number of processors reduced to:   7 ShMem   1 Linda.
 NBasis=   745 RedAO= T EigKep=  1.11D-03  NBF=   745
 NBsUse=   745 1.00D-06 EigRej= -1.00D+00 NBFU=   745
 Precomputing XC quadrature grid using
 IXCGrd= 4 IRadAn=           0 IRanWt=          -1 IRanGd=           0 AccXCQ= 0.00D+00.
 Generated NRdTot=       0 NPtTot=           0 NUsed=           0 NTot=          32
 NSgBfM=   670   670   671   674   680 MxSgAt=    79 MxSgA2=    79.
 Leave Link  302 at Wed Aug 26 14:59:06 2020, MaxMem=    33554432 cpu:        29.1
 (Enter /global/apps/Gaussian/09.d01/l303.exe)
 DipDrv:  MaxL=1.
 Leave Link  303 at Wed Aug 26 14:59:06 2020, MaxMem=    33554432 cpu:         4.3
 (Enter /global/apps/Gaussian/09.d01/l401.exe)
 ExpMin= 1.61D-01 ExpMax= 5.48D+03 ExpMxC= 8.25D+02 IAcc=1 IRadAn=         1 AccDes= 0.00D+00
 Harris functional with IExCor=  402 and IRadAn=       1 diagonalized for initial guess.
 HarFok:  IExCor=  402 AccDes= 0.00D+00 IRadAn=         1 IDoV= 1 UseB2=F ITyADJ=14
 ICtDFT=  3500011 ScaDFX=  1.000000  1.000000  1.000000  1.000000
 CalDSu:  requested number of processors reduced to:  17 ShMem   1 Linda.
 FoFCou: FMM=F IPFlag=           0 FMFlag=      100000 FMFlg1=        2001
         NFxFlg=           0 DoJE=T BraDBF=F KetDBF=T FulRan=T
         wScrn=  0.000000 ICntrl=     500 IOpCl=  0 I1Cent=   200000004 NGrid=           0
         NMat0=    1 NMatS0=      1 NMatT0=    0 NMatD0=    1 NMtDS0=    0 NMtDT0=    0
 Petite list used in FoFCou.
 Harris En= -1778.12652901653    
 JPrj=0 DoOrth=F DoCkMO=F.
 Leave Link  401 at Wed Aug 26 14:59:08 2020, MaxMem=    33554432 cpu:        34.6
 (Enter /global/apps/Gaussian/09.d01/l502.exe)
 Closed shell SCF:
 Using DIIS extrapolation, IDIIS=  1040.
 Integral symmetry usage will be decided dynamically.
 IVT=     1704170 IEndB=     1704170 NGot=    33554432 MDV=    32422673
 LenX=    32422673 LenY=    31866903
 Requested convergence on RMS density matrix=1.00D-08 within 128 cycles.
 Requested convergence on MAX density matrix=1.00D-06.
 Requested convergence on             energy=1.00D-06.
 No special actions if energy rises.
 Fock matrices will be formed incrementally for  20 cycles.
 Integral accuracy reduced to 1.0D-05 until final iterations.

 Cycle   1  Pass 0  IDiag  1:
 FoFJK:  IHMeth= 1 ICntrl=       0 DoSepK=F KAlg= 0 I1Cent=   0 FoldK=F
 IRaf= 650000000 NMat=   1 IRICut=       1 DoRegI=T DoRafI=F ISym2E= 0.
 FoFCou: FMM=T IPFlag=           0 FMFlag=      100000 FMFlg1=        2001
         NFxFlg=           0 DoJE=F BraDBF=F KetDBF=F FulRan=T
         wScrn=  0.000000 ICntrl=       0 IOpCl=  0 I1Cent=           0 NGrid=           0
         NMat0=    1 NMatS0=      1 NMatT0=    0 NMatD0=    1 NMtDS0=    0 NMtDT0=    0
 Symmetry not used in FoFCou.
 FMM levels:  10  Number of levels for PrismC:   9
 CalDSu:  requested number of processors reduced to:  16 ShMem   1 Linda.
 E= -1776.71473279356    
 DIIS: error= 2.69D-02 at cycle   1 NSaved=   1.
 NSaved= 1 IEnMin= 1 EnMin= -1776.71473279356     IErMin= 1 ErrMin= 2.69D-02
 ErrMax= 2.69D-02  0.00D+00 EMaxC= 1.00D-01 BMatC= 1.30D+00 BMatP= 1.30D+00
 IDIUse=3 WtCom= 7.31D-01 WtEn= 2.69D-01
 Coeff-Com:  0.100D+01
 Coeff-En:   0.100D+01
 Coeff:      0.100D+01
 Gap=     0.295 Goal=   None    Shift=    0.000
 GapD=    0.295 DampG=1.000 DampE=0.500 DampFc=0.5000 IDamp=-1.
 Damping current iteration by 5.00D-01
 RMSDP=3.47D-03 MaxDP=2.08D-01              OVMax= 2.71D-01

 Cycle   2  Pass 0  IDiag  1:
 RMSU=  1.73D-03    CP:  9.87D-01
 CalDSu:  requested number of processors reduced to:  17 ShMem   1 Linda.
 E= -1777.13389142376     Delta-E=       -0.419158630201 Rises=F Damp=T
 DIIS: error= 8.43D-03 at cycle   2 NSaved=   2.
 NSaved= 2 IEnMin= 2 EnMin= -1777.13389142376     IErMin= 2 ErrMin= 8.43D-03
 ErrMax= 8.43D-03  0.00D+00 EMaxC= 1.00D-01 BMatC= 1.28D-01 BMatP= 1.30D+00
 IDIUse=3 WtCom= 9.16D-01 WtEn= 8.43D-02
 Coeff-Com:  0.165D+00 0.835D+00
 Coeff-En:   0.249D+00 0.751D+00
 Coeff:      0.172D+00 0.828D+00
 Gap=     0.256 Goal=   None    Shift=    0.000
 RMSDP=9.33D-04 MaxDP=8.51D-02 DE=-4.19D-01 OVMax= 2.00D-01

 Cycle   3  Pass 0  IDiag  1:
 RMSU=  8.23D-04    CP:  9.79D-01  7.50D-01
 CalDSu:  requested number of processors reduced to:  16 ShMem   1 Linda.
 E= -1777.75195714034     Delta-E=       -0.618065716579 Rises=F Damp=F
 DIIS: error= 1.35D-02 at cycle   3 NSaved=   3.
 NSaved= 3 IEnMin= 3 EnMin= -1777.75195714034     IErMin= 2 ErrMin= 8.43D-03
 ErrMax= 1.35D-02  0.00D+00 EMaxC= 1.00D-01 BMatC= 1.31D-01 BMatP= 1.28D-01
 IDIUse=3 WtCom= 8.65D-01 WtEn= 1.35D-01
 Coeff-Com:  0.550D-01 0.502D+00 0.443D+00
 Coeff-En:   0.000D+00 0.000D+00 0.100D+01
 Coeff:      0.476D-01 0.434D+00 0.518D+00
 Gap=     0.235 Goal=   None    Shift=    0.000
 RMSDP=6.43D-04 MaxDP=5.61D-02 DE=-6.18D-01 OVMax= 1.03D-01

 Cycle   4  Pass 0  IDiag  1:
 RMSU=  3.47D-04    CP:  9.85D-01  8.48D-01  3.80D-01
 CalDSu:  requested number of processors reduced to:  16 ShMem   1 Linda.
 E= -1777.83560083573     Delta-E=       -0.083643695383 Rises=F Damp=F
 DIIS: error= 6.78D-03 at cycle   4 NSaved=   4.
 NSaved= 4 IEnMin= 4 EnMin= -1777.83560083573     IErMin= 4 ErrMin= 6.78D-03
 ErrMax= 6.78D-03  0.00D+00 EMaxC= 1.00D-01 BMatC= 3.36D-02 BMatP= 1.28D-01
 IDIUse=3 WtCom= 9.32D-01 WtEn= 6.78D-02
 Coeff-Com:  0.905D-02 0.924D-01 0.337D+00 0.562D+00
 Coeff-En:   0.000D+00 0.000D+00 0.238D+00 0.762D+00
 Coeff:      0.844D-02 0.861D-01 0.330D+00 0.576D+00
 Gap=     0.224 Goal=   None    Shift=    0.000
 RMSDP=2.61D-04 MaxDP=2.30D-02 DE=-8.36D-02 OVMax= 3.64D-02

 Cycle   5  Pass 0  IDiag  1:
 RMSU=  1.02D-04    CP:  9.84D-01  8.03D-01  5.83D-01  5.58D-01
 CalDSu:  requested number of processors reduced to:  16 ShMem   1 Linda.
 E= -1777.86071351829     Delta-E=       -0.025112682561 Rises=F Damp=F
 DIIS: error= 1.38D-03 at cycle   5 NSaved=   5.
 NSaved= 5 IEnMin= 5 EnMin= -1777.86071351829     IErMin= 5 ErrMin= 1.38D-03
 ErrMax= 1.38D-03  0.00D+00 EMaxC= 1.00D-01 BMatC= 2.36D-03 BMatP= 3.36D-02
 IDIUse=3 WtCom= 9.86D-01 WtEn= 1.38D-02
 Coeff-Com:  0.171D-02 0.125D-01 0.158D+00 0.348D+00 0.479D+00
 Coeff-En:   0.000D+00 0.000D+00 0.000D+00 0.000D+00 0.100D+01
 Coeff:      0.168D-02 0.124D-01 0.156D+00 0.344D+00 0.486D+00
 Gap=     0.225 Goal=   None    Shift=    0.000
 RMSDP=6.76D-05 MaxDP=4.42D-03 DE=-2.51D-02 OVMax= 1.02D-02

 Cycle   6  Pass 0  IDiag  1:
 RMSU=  2.64D-05    CP:  9.83D-01  8.11D-01  5.71D-01  6.36D-01  4.74D-01
 CalDSu:  requested number of processors reduced to:  16 ShMem   1 Linda.
 E= -1777.86257269373     Delta-E=       -0.001859175444 Rises=F Damp=F
 DIIS: error= 2.32D-04 at cycle   6 NSaved=   6.
 NSaved= 6 IEnMin= 6 EnMin= -1777.86257269373     IErMin= 6 ErrMin= 2.32D-04
 ErrMax= 2.32D-04  0.00D+00 EMaxC= 1.00D-01 BMatC= 1.11D-04 BMatP= 2.36D-03
 IDIUse=3 WtCom= 9.98D-01 WtEn= 2.32D-03
 Coeff-Com:  0.198D-03-0.139D-02 0.478D-01 0.116D+00 0.246D+00 0.592D+00
 Coeff-En:   0.000D+00 0.000D+00 0.000D+00 0.000D+00 0.000D+00 0.100D+01
 Coeff:      0.197D-03-0.138D-02 0.477D-01 0.115D+00 0.245D+00 0.593D+00
 Gap=     0.222 Goal=   None    Shift=    0.000
 RMSDP=1.57D-05 MaxDP=1.62D-03 DE=-1.86D-03 OVMax= 1.79D-03

 Cycle   7  Pass 0  IDiag  1:
 RMSU=  9.51D-06    CP:  9.83D-01  8.10D-01  5.73D-01  6.32D-01  5.36D-01
                    CP:  6.01D-01
 CalDSu:  requested number of processors reduced to:  16 ShMem   1 Linda.
 E= -1777.86264696280     Delta-E=       -0.000074269070 Rises=F Damp=F
 DIIS: error= 1.32D-04 at cycle   7 NSaved=   7.
 NSaved= 7 IEnMin= 7 EnMin= -1777.86264696280     IErMin= 7 ErrMin= 1.32D-04
 ErrMax= 1.32D-04  0.00D+00 EMaxC= 1.00D-01 BMatC= 1.94D-05 BMatP= 1.11D-04
 IDIUse=3 WtCom= 9.99D-01 WtEn= 1.32D-03
 Coeff-Com:  0.463D-05-0.180D-02 0.168D-01 0.423D-01 0.116D+00 0.373D+00
 Coeff-Com:  0.453D+00
 Coeff-En:   0.000D+00 0.000D+00 0.000D+00 0.000D+00 0.000D+00 0.769D-01
 Coeff-En:   0.923D+00
 Coeff:      0.463D-05-0.180D-02 0.168D-01 0.422D-01 0.116D+00 0.373D+00
 Coeff:      0.454D+00
 Gap=     0.222 Goal=   None    Shift=    0.000
 RMSDP=5.93D-06 MaxDP=5.72D-04 DE=-7.43D-05 OVMax= 9.60D-04

 Initial convergence to 1.0D-05 achieved.  Increase integral accuracy.
 Cycle   8  Pass 1  IDiag  1:
 CalDSu:  requested number of processors reduced to:  16 ShMem   1 Linda.
 E= -1777.86282357482     Delta-E=       -0.000176612023 Rises=F Damp=F
 DIIS: error= 9.81D-05 at cycle   1 NSaved=   1.
 NSaved= 1 IEnMin= 1 EnMin= -1777.86282357482     IErMin= 1 ErrMin= 9.81D-05
 ErrMax= 9.81D-05  0.00D+00 EMaxC= 1.00D-01 BMatC= 4.29D-06 BMatP= 4.29D-06
 IDIUse=1 WtCom= 1.00D+00 WtEn= 0.00D+00
 Coeff-Com:  0.100D+01
 Coeff:      0.100D+01
 Gap=     0.222 Goal=   None    Shift=    0.000
 RMSDP=5.93D-06 MaxDP=5.72D-04 DE=-1.77D-04 OVMax= 8.72D-04

 Cycle   9  Pass 1  IDiag  1:
 RMSU=  2.16D-05    CP:  1.00D+00
 CalDSu:  requested number of processors reduced to:  16 ShMem   1 Linda.
 E= -1777.86282363693     Delta-E=       -0.000000062110 Rises=F Damp=F
 DIIS: error= 1.09D-04 at cycle   2 NSaved=   2.
 NSaved= 2 IEnMin= 2 EnMin= -1777.86282363693     IErMin= 1 ErrMin= 9.81D-05
 ErrMax= 1.09D-04  0.00D+00 EMaxC= 1.00D-01 BMatC= 5.11D-06 BMatP= 4.29D-06
 IDIUse=3 WtCom= 4.89D-01 WtEn= 5.11D-01
 Coeff-Com:  0.530D+00 0.470D+00
 Coeff-En:   0.495D+00 0.505D+00
 Coeff:      0.512D+00 0.488D+00
 Gap=     0.222 Goal=   None    Shift=    0.000
 RMSDP=4.19D-06 MaxDP=5.18D-04 DE=-6.21D-08 OVMax= 9.96D-04

 Cycle  10  Pass 1  IDiag  1:
 RMSU=  4.13D-06    CP:  1.00D+00  9.68D-01
 CalDSu:  requested number of processors reduced to:  16 ShMem   1 Linda.
 E= -1777.86282623622     Delta-E=       -0.000002599284 Rises=F Damp=F
 DIIS: error= 6.99D-05 at cycle   3 NSaved=   3.
 NSaved= 3 IEnMin= 3 EnMin= -1777.86282623622     IErMin= 3 ErrMin= 6.99D-05
 ErrMax= 6.99D-05  0.00D+00 EMaxC= 1.00D-01 BMatC= 1.80D-06 BMatP= 4.29D-06
 IDIUse=1 WtCom= 1.00D+00 WtEn= 0.00D+00
 Coeff-Com:  0.209D-01 0.369D+00 0.610D+00
 Coeff:      0.209D-01 0.369D+00 0.610D+00
 Gap=     0.222 Goal=   None    Shift=    0.000
 RMSDP=1.69D-06 MaxDP=2.14D-04 DE=-2.60D-06 OVMax= 4.32D-04

 Cycle  11  Pass 1  IDiag  1:
 RMSU=  6.15D-07    CP:  1.00D+00  9.90D-01  6.38D-01
 CalDSu:  requested number of processors reduced to:  16 ShMem   1 Linda.
 E= -1777.86282756003     Delta-E=       -0.000001323808 Rises=F Damp=F
 DIIS: error= 8.16D-06 at cycle   4 NSaved=   4.
 NSaved= 4 IEnMin= 4 EnMin= -1777.86282756003     IErMin= 4 ErrMin= 8.16D-06
 ErrMax= 8.16D-06  0.00D+00 EMaxC= 1.00D-01 BMatC= 6.78D-08 BMatP= 1.80D-06
 IDIUse=1 WtCom= 1.00D+00 WtEn= 0.00D+00
 Coeff-Com: -0.386D-02 0.205D+00 0.364D+00 0.435D+00
 Coeff:     -0.386D-02 0.205D+00 0.364D+00 0.435D+00
 Gap=     0.222 Goal=   None    Shift=    0.000
 RMSDP=3.56D-07 MaxDP=3.54D-05 DE=-1.32D-06 OVMax= 5.23D-05

 Cycle  12  Pass 1  IDiag  1:
 RMSU=  1.40D-07    CP:  1.00D+00  9.91D-01  6.46D-01  4.71D-01
 CalDSu:  requested number of processors reduced to:  16 ShMem   1 Linda.
 E= -1777.86282761686     Delta-E=       -0.000000056835 Rises=F Damp=F
 DIIS: error= 1.51D-06 at cycle   5 NSaved=   5.
 NSaved= 5 IEnMin= 5 EnMin= -1777.86282761686     IErMin= 5 ErrMin= 1.51D-06
 ErrMax= 1.51D-06  0.00D+00 EMaxC= 1.00D-01 BMatC= 3.03D-09 BMatP= 6.78D-08
 IDIUse=1 WtCom= 1.00D+00 WtEn= 0.00D+00
 Coeff-Com: -0.317D-02 0.113D+00 0.202D+00 0.269D+00 0.418D+00
 Coeff:     -0.317D-02 0.113D+00 0.202D+00 0.269D+00 0.418D+00
 Gap=     0.222 Goal=   None    Shift=    0.000
 RMSDP=7.59D-08 MaxDP=6.55D-06 DE=-5.68D-08 OVMax= 9.13D-06

 Cycle  13  Pass 1  IDiag  1:
 RMSU=  5.42D-08    CP:  1.00D+00  9.91D-01  6.46D-01  4.92D-01  6.32D-01
 CalDSu:  requested number of processors reduced to:  16 ShMem   1 Linda.
 E= -1777.86282761904     Delta-E=       -0.000000002178 Rises=F Damp=F
 DIIS: error= 3.31D-07 at cycle   6 NSaved=   6.
 NSaved= 6 IEnMin= 6 EnMin= -1777.86282761904     IErMin= 6 ErrMin= 3.31D-07
 ErrMax= 3.31D-07  0.00D+00 EMaxC= 1.00D-01 BMatC= 1.42D-10 BMatP= 3.03D-09
 IDIUse=1 WtCom= 1.00D+00 WtEn= 0.00D+00
 Coeff-Com: -0.121D-02 0.356D-01 0.639D-01 0.912D-01 0.217D+00 0.594D+00
 Coeff:     -0.121D-02 0.356D-01 0.639D-01 0.912D-01 0.217D+00 0.594D+00
 Gap=     0.222 Goal=   None    Shift=    0.000
 RMSDP=1.99D-08 MaxDP=1.63D-06 DE=-2.18D-09 OVMax= 2.05D-06

 Cycle  14  Pass 1  IDiag  1:
 RMSU=  1.53D-08    CP:  1.00D+00  9.91D-01  6.45D-01  4.92D-01  6.83D-01
                    CP:  8.08D-01
 CalDSu:  requested number of processors reduced to:  16 ShMem   1 Linda.
 E= -1777.86282761923     Delta-E=       -0.000000000186 Rises=F Damp=F
 DIIS: error= 1.36D-07 at cycle   7 NSaved=   7.
 NSaved= 7 IEnMin= 7 EnMin= -1777.86282761923     IErMin= 7 ErrMin= 1.36D-07
 ErrMax= 1.36D-07  0.00D+00 EMaxC= 1.00D-01 BMatC= 2.12D-11 BMatP= 1.42D-10
 IDIUse=1 WtCom= 1.00D+00 WtEn= 0.00D+00
 Coeff-Com: -0.323D-03 0.743D-02 0.135D-01 0.214D-01 0.721D-01 0.332D+00
 Coeff-Com:  0.554D+00
 Coeff:     -0.323D-03 0.743D-02 0.135D-01 0.214D-01 0.721D-01 0.332D+00
 Coeff:      0.554D+00
 Gap=     0.222 Goal=   None    Shift=    0.000
 RMSDP=7.24D-09 MaxDP=5.21D-07 DE=-1.86D-10 OVMax= 1.03D-06

 SCF Done:  E(RB3LYP) =  -1777.86282762     A.U. after   14 cycles
            NFock= 14  Conv=0.72D-08     -V/T= 2.0092
 KE= 1.761584760441D+03 PE=-1.227348143624D+04 EE= 4.684709298962D+03
 Leave Link  502 at Wed Aug 26 15:00:13 2020, MaxMem=    33554432 cpu:      1203.9
 (Enter /global/apps/Gaussian/09.d01/l601.exe)
 Copying SCF densities to generalized density rwf, IOpCl= 0 IROHF=0.

 **********************************************************************

            Population analysis using the SCF density.

 **********************************************************************

 Orbital symmetries:
       Occupied  (A) (A) (A) (A) (A) (A) (A) (A) (A) (A) (A) (A)
                 (A) (A) (A) (A) (A) (A) (A) (A) (A) (A) (A) (A)
                 (A) (A) (A) (A) (A) (A) (A) (A) (A) (A) (A) (A)
                 (A) (A) (A) (A) (A) (A) (A) (A) (A) (A) (A) (A)
                 (A) (A) (A) (A) (A) (A) (A) (A) (A) (A) (A) (A)
                 (A) (A) (A) (A) (A) (A) (A) (A) (A) (A) (A) (A)
                 (A) (A) (A) (A) (A) (A) (A) (A) (A) (A) (A) (A)
                 (A) (A) (A) (A) (A) (A) (A) (A) (A) (A) (A) (A)
                 (A) (A) (A) (A) (A) (A) (A) (A) (A) (A) (A) (A)
                 (A) (A) (A) (A) (A) (A) (A) (A) (A) (A) (A) (A)
                 (A) (A) (A) (A) (A) (A) (A) (A) (A) (A) (A) (A)
                 (A) (A) (A) (A) (A) (A) (A)
       Virtual   (A) (A) (A) (A) (A) (A) (A) (A) (A) (A) (A) (A)
                 (A) (A) (A) (A) (A) (A) (A) (A) (A) (A) (A) (A)
                 (A) (A) (A) (A) (A) (A) (A) (A) (A) (A) (A) (A)
                 (A) (A) (A) (A) (A) (A) (A) (A) (A) (A) (A) (A)
                 (A) (A) (A) (A) (A) (A) (A) (A) (A) (A) (A) (A)
                 (A) (A) (A) (A) (A) (A) (A) (A) (A) (A) (A) (A)
                 (A) (A) (A) (A) (A) (A) (A) (A) (A) (A) (A) (A)
                 (A) (A) (A) (A) (A) (A) (A) (A) (A) (A) (A) (A)
                 (A) (A) (A) (A) (A) (A) (A) (A) (A) (A) (A) (A)
                 (A) (A) (A) (A) (A) (A) (A) (A) (A) (A) (A) (A)
                 (A) (A) (A) (A) (A) (A) (A) (A) (A) (A) (A) (A)
                 (A) (A) (A) (A) (A) (A) (A) (A) (A) (A) (A) (A)
                 (A) (A) (A) (A) (A) (A) (A) (A) (A) (A) (A) (A)
                 (A) (A) (A) (A) (A) (A) (A) (A) (A) (A) (A) (A)
                 (A) (A) (A) (A) (A) (A) (A) (A) (A) (A) (A) (A)
                 (A) (A) (A) (A) (A) (A) (A) (A) (A) (A) (A) (A)
                 (A) (A) (A) (A) (A) (A) (A) (A) (A) (A) (A) (A)
                 (A) (A) (A) (A) (A) (A) (A) (A) (A) (A) (A) (A)
                 (A) (A) (A) (A) (A) (A) (A) (A) (A) (A) (A) (A)
                 (A) (A) (A) (A) (A) (A) (A) (A) (A) (A) (A) (A)
                 (A) (A) (A) (A) (A) (A) (A) (A) (A) (A) (A) (A)
                 (A) (A) (A) (A) (A) (A) (A) (A) (A) (A) (A) (A)
                 (A) (A) (A) (A) (A) (A) (A) (A) (A) (A) (A) (A)
                 (A) (A) (A) (A) (A) (A) (A) (A) (A) (A) (A) (A)
                 (A) (A) (A) (A) (A) (A) (A) (A) (A) (A) (A) (A)
                 (A) (A) (A) (A) (A) (A) (A) (A) (A) (A) (A) (A)
                 (A) (A) (A) (A) (A) (A) (A) (A) (A) (A) (A) (A)
                 (A) (A) (A) (A) (A) (A) (A) (A) (A) (A) (A) (A)
                 (A) (A) (A) (A) (A) (A) (A) (A) (A) (A) (A) (A)
                 (A) (A) (A) (A) (A) (A) (A) (A) (A) (A) (A) (A)
                 (A) (A) (A) (A) (A) (A) (A) (A) (A) (A) (A) (A)
                 (A) (A) (A) (A) (A) (A) (A) (A) (A) (A) (A) (A)
                 (A) (A) (A) (A) (A) (A) (A) (A) (A) (A) (A) (A)
                 (A) (A) (A) (A) (A) (A) (A) (A) (A) (A) (A) (A)
                 (A) (A) (A) (A) (A) (A) (A) (A) (A) (A) (A) (A)
                 (A) (A) (A) (A) (A) (A) (A) (A) (A) (A) (A) (A)
                 (A) (A) (A) (A) (A) (A) (A) (A) (A) (A) (A) (A)
                 (A) (A) (A) (A) (A) (A) (A) (A) (A) (A) (A) (A)
                 (A) (A) (A) (A) (A) (A) (A) (A) (A) (A) (A) (A)
                 (A) (A) (A) (A) (A) (A) (A) (A) (A) (A) (A) (A)
                 (A) (A) (A) (A) (A) (A) (A) (A) (A) (A) (A) (A)
                 (A) (A) (A) (A) (A) (A) (A) (A) (A) (A) (A) (A)
                 (A) (A) (A) (A) (A) (A) (A) (A) (A) (A) (A) (A)
                 (A) (A) (A) (A) (A) (A) (A) (A) (A) (A) (A) (A)
                 (A) (A) (A) (A) (A) (A) (A) (A) (A) (A) (A) (A)
                 (A) (A) (A) (A) (A) (A) (A) (A) (A) (A) (A) (A)
                 (A) (A) (A) (A) (A) (A) (A) (A) (A) (A) (A) (A)
                 (A) (A) (A) (A) (A) (A) (A) (A) (A) (A) (A) (A)
                 (A) (A) (A) (A) (A) (A) (A) (A) (A) (A) (A) (A)
                 (A) (A) (A) (A) (A) (A) (A) (A) (A) (A) (A) (A)
                 (A) (A) (A) (A) (A) (A)
 The electronic state is 1-A.
 Alpha  occ. eigenvalues --  -19.07017 -19.04640 -19.03483 -19.02593 -19.02581
 Alpha  occ. eigenvalues --  -19.01345 -19.00685 -19.00572 -19.00572 -14.31079
 Alpha  occ. eigenvalues --  -14.30789 -14.25557 -14.25342 -14.24952 -10.22780
 Alpha  occ. eigenvalues --  -10.20397 -10.19711 -10.18840 -10.18423 -10.18383
 Alpha  occ. eigenvalues --  -10.16053 -10.15302 -10.14857 -10.14191 -10.12776
 Alpha  occ. eigenvalues --  -10.12271 -10.12233 -10.12202 -10.10761 -10.10724
 Alpha  occ. eigenvalues --  -10.10281 -10.10050 -10.09772 -10.09062 -10.08538
 Alpha  occ. eigenvalues --   -0.97722  -0.96889  -0.95791  -0.93051  -0.92667
 Alpha  occ. eigenvalues --   -0.92361  -0.90130  -0.89310  -0.87486  -0.86800
[...]
 Alpha  occ. eigenvalues --   -0.49037  -0.48384  -0.47486  -0.47365  -0.46185
 Alpha  occ. eigenvalues --   -0.45344  -0.43057  -0.42171  -0.41251  -0.41101
 Alpha  occ. eigenvalues --   -0.40571  -0.39821  -0.39678  -0.39428  -0.38558
 Alpha  occ. eigenvalues --   -0.38403  -0.37979  -0.37798  -0.37279  -0.36744
 Alpha  occ. eigenvalues --   -0.36687  -0.36332  -0.36276  -0.35958  -0.35799
 Alpha  occ. eigenvalues --   -0.35558  -0.35505  -0.34608  -0.34315  -0.34132
 Alpha  occ. eigenvalues --   -0.32994  -0.32680  -0.32353  -0.31945  -0.31775
 Alpha  occ. eigenvalues --   -0.31368  -0.31005  -0.30904  -0.30850  -0.30444
 Alpha  occ. eigenvalues --   -0.29987  -0.29378  -0.29304  -0.29103  -0.29064
 Alpha  occ. eigenvalues --   -0.28963  -0.28772  -0.28704  -0.28270  -0.27908
 Alpha  occ. eigenvalues --   -0.27719  -0.27338  -0.26446  -0.25850  -0.25077
 Alpha  occ. eigenvalues --   -0.24613  -0.24453  -0.24134  -0.23640  -0.20100
 Alpha  occ. eigenvalues --   -0.19936  -0.19052  -0.18274  -0.17810  -0.17542
 Alpha  occ. eigenvalues --   -0.17122  -0.16129  -0.16113  -0.15180  -0.15112
 Alpha  occ. eigenvalues --   -0.14613  -0.14288  -0.13982  -0.13917
 Alpha virt. eigenvalues --    0.06994   0.10147   0.11087   0.12171   0.12794
 Alpha virt. eigenvalues --    0.13362   0.15391   0.15603   0.17206   0.17664
 Alpha virt. eigenvalues --    0.18018   0.18106   0.18707   0.19132   0.19794
 Alpha virt. eigenvalues --    0.20287   0.21032   0.21708   0.21897   0.22021
 Alpha virt. eigenvalues --    0.22276   0.22627   0.23031   0.23153   0.23483
 Alpha virt. eigenvalues --    0.23620   0.23808   0.24110   0.24332   0.24605
 Alpha virt. eigenvalues --    0.24761   0.25008   0.25375   0.25659   0.25965
 Alpha virt. eigenvalues --    0.26208   0.26448   0.26558   0.26801   0.26868
 Alpha virt. eigenvalues --    0.27286   0.27288   0.27436   0.27492   0.28273
 Alpha virt. eigenvalues --    0.28590   0.29059   0.29373   0.29516   0.29641
 Alpha virt. eigenvalues --    0.30274   0.30578   0.31070   0.31653   0.32422
 Alpha virt. eigenvalues --    0.32796   0.33075   0.33200   0.33652   0.34180
 Alpha virt. eigenvalues --    0.34666   0.34773   0.35602   0.35697   0.36123
 Alpha virt. eigenvalues --    0.37544   0.37908   0.38430   0.41232   0.42154
 Alpha virt. eigenvalues --    0.42661   0.43878   0.44468   0.44971   0.46762
 Alpha virt. eigenvalues --    0.47630   0.49013   0.51178   0.52736   0.53917
 Alpha virt. eigenvalues --    0.54379   0.55164   0.57229   0.57668   0.58535
 Alpha virt. eigenvalues --    0.58822   0.59396   0.59580   0.60407   0.60629
 Alpha virt. eigenvalues --    0.60862   0.61278   0.61484   0.61661   0.62176
 Alpha virt. eigenvalues --    0.62580   0.62701   0.63475   0.64032   0.64121
 Alpha virt. eigenvalues --    0.64552   0.64679   0.65132   0.65574   0.66451
 Alpha virt. eigenvalues --    0.66902   0.67079   0.67252   0.67426   0.68032
 Alpha virt. eigenvalues --    0.68200   0.68560   0.68687   0.69784   0.70102
 Alpha virt. eigenvalues --    0.70957   0.71060   0.71111   0.71717   0.72808
 Alpha virt. eigenvalues --    0.73417   0.73731   0.74078   0.74297   0.74485
 Alpha virt. eigenvalues --    0.75123   0.76282   0.76518   0.77612   0.78360
 Alpha virt. eigenvalues --    0.78833   0.79333   0.80302   0.80855   0.81427
 Alpha virt. eigenvalues --    0.81719   0.82333   0.82781   0.83373   0.84048
 Alpha virt. eigenvalues --    0.84298   0.84690   0.85250   0.85891   0.86425
 Alpha virt. eigenvalues --    0.86816   0.87200   0.87302   0.87848   0.88138
 Alpha virt. eigenvalues --    0.88389   0.88538   0.89433   0.90171   0.90231
 Alpha virt. eigenvalues --    0.91298   0.91880   0.92199   0.92390   0.92457
 Alpha virt. eigenvalues --    0.93064   0.93403   0.93505   0.94097   0.94413
 Alpha virt. eigenvalues --    0.94668   0.94956   0.95322   0.95708   0.95932
 Alpha virt. eigenvalues --    0.96464   0.96550   0.96815   0.96940   0.97741
 Alpha virt. eigenvalues --    0.98183   0.98480   0.98595   0.99344   0.99741
 Alpha virt. eigenvalues --    0.99814   1.00086   1.00425   1.00706   1.01018
 Alpha virt. eigenvalues --    1.01242   1.01415   1.01664   1.02179   1.02589
 Alpha virt. eigenvalues --    1.03386   1.03723   1.04413   1.05004   1.05283
 Alpha virt. eigenvalues --    1.06138   1.06891   1.07380   1.08514   1.08782
 Alpha virt. eigenvalues --    1.09415   1.10407   1.11732   1.12397   1.12609
 Alpha virt. eigenvalues --    1.13943   1.13964   1.14777   1.15296   1.15780
 Alpha virt. eigenvalues --    1.16573   1.17768   1.18167   1.18943   1.19052
 Alpha virt. eigenvalues --    1.20607   1.21041   1.21563   1.21921   1.22492
 Alpha virt. eigenvalues --    1.23529   1.24387   1.25157   1.26726   1.28125
 Alpha virt. eigenvalues --    1.28515   1.29476   1.29958   1.30652   1.30903
 Alpha virt. eigenvalues --    1.32084   1.33136   1.34629   1.34821   1.35460
 Alpha virt. eigenvalues --    1.35877   1.36680   1.36970   1.37417   1.38760
 Alpha virt. eigenvalues --    1.38927   1.39359   1.39665   1.39998   1.40524
 Alpha virt. eigenvalues --    1.40781   1.41853   1.42175   1.43345   1.43873
 Alpha virt. eigenvalues --    1.45331   1.45649   1.46241   1.46575   1.47423
 Alpha virt. eigenvalues --    1.47829   1.48570   1.49839   1.50275   1.51006
 Alpha virt. eigenvalues --    1.51918   1.52311   1.53017   1.54262   1.54280
 Alpha virt. eigenvalues --    1.55674   1.58481   1.59337   1.60839   1.61830
 Alpha virt. eigenvalues --    1.62519   1.63342   1.63985   1.64437   1.65218
 Alpha virt. eigenvalues --    1.66531   1.66666   1.67385   1.68615   1.69746
 Alpha virt. eigenvalues --    1.70178   1.71773   1.72396   1.73263   1.73386
 Alpha virt. eigenvalues --    1.74187   1.74915   1.75041   1.76833   1.77271
 Alpha virt. eigenvalues --    1.78512   1.78781   1.79854   1.80697   1.80884
 Alpha virt. eigenvalues --    1.81895   1.82256   1.82343   1.82559   1.83404
 Alpha virt. eigenvalues --    1.85493   1.86641   1.87258   1.87511   1.87916
 Alpha virt. eigenvalues --    1.88817   1.89076   1.89640   1.90076   1.90390
 Alpha virt. eigenvalues --    1.91119   1.91654   1.92030   1.92199   1.92667
 Alpha virt. eigenvalues --    1.93127   1.93583   1.94469   1.95643   1.95895
 Alpha virt. eigenvalues --    1.96748   1.96961   1.97442   1.97507   1.97970
 Alpha virt. eigenvalues --    1.98233   1.98381   1.98688   1.98989   1.99635
 Alpha virt. eigenvalues --    2.00023   2.00611   2.01583   2.01982   2.02638
 Alpha virt. eigenvalues --    2.03698   2.04081   2.04176   2.04674   2.05976
 Alpha virt. eigenvalues --    2.06698   2.08264   2.08718   2.09687   2.10748
 Alpha virt. eigenvalues --    2.11385   2.11624   2.11759   2.11832   2.12056
 Alpha virt. eigenvalues --    2.12139   2.12242   2.12334   2.12839   2.13025
 Alpha virt. eigenvalues --    2.13603   2.13819   2.14079   2.14180   2.14668
 Alpha virt. eigenvalues --    2.14901   2.14929   2.15544   2.15738   2.16571
 Alpha virt. eigenvalues --    2.16906   2.17461   2.17733   2.17878   2.18170
 Alpha virt. eigenvalues --    2.18352   2.18766   2.19069   2.19339   2.20021
 Alpha virt. eigenvalues --    2.20903   2.21074   2.21605   2.21978   2.22547
 Alpha virt. eigenvalues --    2.22745   2.23092   2.23946   2.24931   2.25369
 Alpha virt. eigenvalues --    2.25825   2.26689   2.26804   2.27367   2.27972
 Alpha virt. eigenvalues --    2.28340   2.28931   2.29572   2.30390   2.30833
 Alpha virt. eigenvalues --    2.31671   2.31866   2.34206   2.34460   2.35009
 Alpha virt. eigenvalues --    2.35982   2.36505   2.36989   2.37569   2.37995
 Alpha virt. eigenvalues --    2.39233   2.40221   2.40366   2.41247   2.41851
 Alpha virt. eigenvalues --    2.42603   2.42945   2.43675   2.44941   2.45209
 Alpha virt. eigenvalues --    2.45477   2.47738   2.48830   2.48888   2.49776
 Alpha virt. eigenvalues --    2.50201   2.50619   2.51249   2.51488   2.52186
 Alpha virt. eigenvalues --    2.52832   2.53240   2.53816   2.54644   2.55095
 Alpha virt. eigenvalues --    2.55728   2.56856   2.57760   2.58393   2.59447
 Alpha virt. eigenvalues --    2.59563   2.60307   2.61325   2.61813   2.62807
 Alpha virt. eigenvalues --    2.63069   2.63417   2.65674   2.66140   2.67262
 Alpha virt. eigenvalues --    2.67493   2.67867   2.68211   2.68761   2.68998
 Alpha virt. eigenvalues --    2.70171   2.70437   2.71073   2.71952   2.72371
 Alpha virt. eigenvalues --    2.73468   2.74303   2.74635   2.74652   2.74992
 Alpha virt. eigenvalues --    2.75597   2.76137   2.77015   2.77523   2.77774
 Alpha virt. eigenvalues --    2.77913   2.78101   2.78449   2.79077   2.79192
 Alpha virt. eigenvalues --    2.80465   2.80499   2.80767   2.80868   2.81441
 Alpha virt. eigenvalues --    2.82191   2.83558   2.84196   2.85635   2.87835
 Alpha virt. eigenvalues --    2.88749   2.90050   2.90159   2.90698   2.91630
 Alpha virt. eigenvalues --    2.91663   2.92509   2.93504   2.93601   2.93653
 Alpha virt. eigenvalues --    2.94153   2.94829   2.95250   2.95688   2.96116
 Alpha virt. eigenvalues --    2.96449   2.96986   2.97128   2.97607   2.97704
 Alpha virt. eigenvalues --    2.98049   2.98354   2.98741   2.98769   2.99733
 Alpha virt. eigenvalues --    3.01072   3.02174   3.03591   3.04410   3.06077
 Alpha virt. eigenvalues --    3.06644   3.07835   3.08703   3.09502   3.13358
 Alpha virt. eigenvalues --    3.13893   3.15772   3.17494   3.18011   3.18213
 Alpha virt. eigenvalues --    3.19777   3.21883   3.22258   3.23198   3.24262
 Alpha virt. eigenvalues --    3.25611   3.27734   3.28502   3.28661   3.29823
 Alpha virt. eigenvalues --    3.31073   3.31873   3.32094   3.32764   3.32924
 Alpha virt. eigenvalues --    3.34067   3.37574   3.38631   3.39365   3.41300
 Alpha virt. eigenvalues --    3.43604   3.46463   3.47240   3.48859   3.50216
 Alpha virt. eigenvalues --    3.50652   3.50956   3.51370   3.51713   3.52120
 Alpha virt. eigenvalues --    3.52402   3.52746   3.53056   3.53309   3.53548
 Alpha virt. eigenvalues --    3.54107   3.54524   3.55287   3.55740   3.56218
 Alpha virt. eigenvalues --    3.56956   3.57095   3.61409   3.61983   3.63343
 Alpha virt. eigenvalues --    3.66975   3.72267   3.72528   3.72903   3.76542
 Alpha virt. eigenvalues --    3.84730   3.95036   4.13650   4.14215   4.15874
 Alpha virt. eigenvalues --    4.16090   4.19611   4.20323   4.21907   4.24551
 Alpha virt. eigenvalues --    4.27193   4.28035   4.30503   4.31201   4.37014
 Alpha virt. eigenvalues --    4.37308   4.39396   4.40199   4.44723   4.46477
 Alpha virt. eigenvalues --    4.49516   4.55496   4.56255   4.57490   4.57744
 Alpha virt. eigenvalues --    4.58619   4.64379   4.65196   4.69990   4.71489
 Alpha virt. eigenvalues --    4.72422   4.74759   4.75918   4.77861   4.82602
 Alpha virt. eigenvalues --    4.85151
          Condensed to atoms (all electrons):
 Mulliken charges:
               1
     1  C    0.566064
     2  C   -0.250751
     3  N   -0.555361
     4  C    0.037904
     5  H    0.111242
     6  H    0.104657
     7  O   -0.561978
     8  C   -0.158442
     9  H    0.325532
    10  H    0.060934
    11  O   -0.610288
    12  H    0.122190
    13  H    0.114205
    14  H    0.107277
    15  H    0.102026
    16  C    0.739779
    17  C   -0.321738
    18  O   -0.527647
    19  O   -0.673075
    20  H    0.088381
    21  H    0.105400
    22  H    0.103190
    23  C   -0.068307
    24  H    0.083200
    25  H    0.070735
    26  H    0.116574
    27  N   -0.502827
    28  C    0.298335
    29  C    0.016438
    30  N   -0.543937
    31  H    0.155743
    32  C    0.273313
    33  H    0.129687
    34  C   -0.246562
    35  C   -0.334291
    36  H    0.095183
    37  H    0.147380
    38  H    0.100450
    39  H    0.094258
    40  H    0.134751
    41  C   -0.403541
    42  C    0.545505
    43  H    0.133809
    44  H    0.112827
    45  H    0.117725
    46  N   -0.543380
    47  O   -0.552612
    48  C   -0.165642
    49  H    0.325217
    50  H    0.112555
    51  H    0.099195
    52  H    0.116190
    53  C    0.589203
    54  C   -0.251265
    55  O   -0.609313
    56  O   -0.577375
    57  C   -0.307838
    58  H    0.110722
    59  H    0.108435
    60  H    0.076177
    61  H    0.107668
    62  H    0.120919
    63  N   -0.546514
    64  C   -0.176082
    65  C    0.531553
    66  H    0.297821
    67  H    0.110399
    68  H    0.103671
    69  H    0.139344
    70  C   -0.400415
    71  O   -0.527669
    72  H    0.129522
    73  H    0.135942
    74  H    0.107410
    75  O   -0.658563
    76  H    0.301267
    77  H    0.344504
    78  H    0.397629
    79  H    0.395374
 Sum of Mulliken charges =  -1.00000
 Mulliken charges with hydrogens summed into heavy atoms:
               1
     1  C    0.566064
     2  C   -0.034852
     3  N   -0.229829
     4  C    0.221028
     7  O   -0.561978
     8  C    0.165066
    11  O   -0.610288
    16  C    0.739779
    17  C   -0.024766
    18  O   -0.527647
    19  O   -0.673075
    23  C    0.202202
    27  N   -0.107453
    28  C    0.454078
    29  C    0.146125
    30  N   -0.146308
    32  C    0.273313
    34  C   -0.003999
    35  C   -0.004832
    41  C   -0.039179
    42  C    0.545505
    46  N   -0.218164
    47  O   -0.552612
    48  C    0.162299
    53  C    0.589203
    54  C   -0.032108
    55  O   -0.609313
    56  O   -0.577375
    57  C   -0.003075
    63  N   -0.248693
    64  C    0.177332
    65  C    0.531553
    70  C   -0.027541
    71  O   -0.527669
    75  O   -0.012792
 Electronic spatial extent (au):  <R**2>=          28382.6324
 Charge=             -1.0000 electrons
 Dipole moment (field-independent basis, Debye):
    X=              5.3855    Y=              4.2050    Z=              5.1564  Tot=              8.5600
 Quadrupole moment (field-independent basis, Debye-Ang):
   XX=           -377.6322   YY=           -286.2485   ZZ=           -229.9356
   XY=              2.8333   XZ=             -1.1510   YZ=              1.4480
 Traceless Quadrupole moment (field-independent basis, Debye-Ang):
   XX=            -79.6935   YY=             11.6903   ZZ=             68.0032
   XY=              2.8333   XZ=             -1.1510   YZ=              1.4480
 Octapole moment (field-independent basis, Debye-Ang**2):
  XXX=            386.0199  YYY=            -26.9742  ZZZ=             55.0444  XYY=            140.4238
  XXY=            318.8368  XXZ=              1.0557  XZZ=            -31.0720  YZZ=             14.3580
  YYZ=            112.5665  XYZ=            -97.7123
 Hexadecapole moment (field-independent basis, Debye-Ang**3):
 XXXX=         -34861.3468 YYYY=          -6903.4583 ZZZZ=          -3271.7463 XXXY=          -1679.0326
 XXXZ=            -44.9180 YYYX=            241.1562 YYYZ=            134.2397 ZZZX=             49.8217
 ZZZY=           -128.7455 XXYY=          -7793.4411 XXZZ=          -5395.8418 YYZZ=          -1824.5409
 XXYZ=            220.5248 YYXZ=           -154.7368 ZZXY=            323.3130
 N-N= 4.054765758448D+03 E-N=-1.228424595535D+04  KE= 1.761599218472D+03
 No NMR shielding tensors so no spin-rotation constants.
 Leave Link  601 at Wed Aug 26 15:34:40 2020, MaxMem=    33554432 cpu:        11.4
 (Enter /global/apps/Gaussian/09.d01/l9999.exe)
 1\1\GINC-C55-3\FOpt\RB3LYP\6-31G(d,p)\C21H44N5O9(1-)\BENTESIRINBARGE\2
 6-Aug-2020\0\\#p opt=modredundant rb3lyp/6-31g(d,p) geom=connectivity 
 empiricaldispersion=gd3\\TITLE\\-1,1\C,-3.8012734558,3.4393484297,-1.1
 771852369\C,-2.5554442417,3.3886762625,-0.2825709488\N,-4.6946948702,2
 .426852921,-1.0899294175\C,-2.3994801768,2.2535056232,0.727217073\H,-1
 .68683458,3.4025411296,-0.9511811843\H,-2.5457815634,4.3509803399,0.24
 42147383\O,-3.9640850451,4.406403075,-1.9266023308\C,-5.9020624369,2.4
 804958356,-1.8956301727\H,-4.5250842866,1.5932422152,-0.5063860937\H,-
 1.6297774348,2.5324197614,1.4639877874\O,-1.9891067985,1.0520071895,0.
 0827844686\H,-3.3326193537,2.0720870486,1.2701599373\H,-5.6624772409,2
 .5946911874,-2.9586815235\H,-6.53149442,3.3324107887,-1.6120586117\H,-
 6.4628847412,1.5554621017,-1.7478230615\C,-2.9347177067,-0.1895239134,
 0.1985623417\C,-2.7243495905,-0.8770257245,-1.1469303556\O,-2.26123970
 74,-1.0333910935,1.1703342206\O,-4.1395867301,0.161370061,0.5110204196
 \H,-1.6699232287,-1.1058659228,-1.323578715\H,-3.3016684092,-1.8046764
 706,-1.161070545\H,-3.0898655525,-0.2135343614,-1.932954223\C,-2.52039
 31266,-0.6766278573,2.5173539871\H,-2.1266317813,-1.4843679477,3.14217
 04939\H,-2.0144824566,0.2618842442,2.7952047564\H,-3.5927242467,-0.554
 9660146,2.7007401712\N,0.4852679263,0.6402046619,0.7981454985\C,1.4206
 66156,1.3624280634,0.1765379765\C,1.0927674552,-0.0415722696,1.8307857
 908\N,2.6016917239,1.1697723576,0.7640171148\H,1.2402831983,2.00198437
 05,-0.6729236893\C,2.4288642377,0.2854937224,1.8154605475\H,0.53252256
 46,-0.7031543266,2.4707712254\C,3.56879293,-0.17593286,2.6728842323\C,
 4.3706111666,0.9726017893,3.3158773657\H,3.1587385628,-0.829609307,3.4
 507944966\H,4.2471135999,-0.794973977,2.0740495052\H,5.2126317904,0.56
 75052134,3.8850918666\H,3.7445374048,1.5596531555,3.9966484727\H,4.764
 5705655,1.6476868032,2.5519868885\C,-7.4599525214,-0.8928142755,-0.148
 3377089\C,-6.9117663573,-2.2557948884,0.2714721717\H,-6.7474604785,-0.
 0811206399,0.0163042819\H,-8.3814913313,-0.6975031925,0.4069863401\H,-
 7.7221999566,-0.9338181151,-1.2105507577\N,-5.6114600848,-2.2537546924
 ,0.645186082\O,-7.6131964351,-3.2698124796,0.2514941479\C,-4.943031125
 9,-3.4824066439,1.031062313\H,-5.0780191375,-1.3732298528,0.6355140875
 \H,-5.0892978534,-4.2593825574,0.272949491\H,-5.33115681,-3.875206713,
 1.9797496359\H,-3.8772449124,-3.2675151341,1.1379439587\C,5.6802933104
 ,1.368662648,-0.1169803453\C,7.1383150534,1.8316649668,-0.1528050592\O
 ,4.8192032829,2.2629307637,0.1697773175\O,5.4152631819,0.1585464921,-0
 .3364440868\C,8.1108945469,0.8029939814,-0.7248035061\H,7.4089555165,2
 .0927394555,0.8789901084\H,7.1690465167,2.7744960198,-0.7105826769\H,9
 .1403287044,1.1769535434,-0.699815139\H,7.8599710197,0.5617283828,-1.7
 621911015\H,8.067051019,-0.131528714,-0.159391497\N,3.5743750696,-1.79
 72147006,-1.3693510992\C,2.1308840904,-1.8824031562,-1.2309447277\C,4.
 2324307536,-2.5583546297,-2.3005968287\H,4.0517620303,-0.9733914987,-0
 .9997897421\H,1.8431257569,-1.6656026302,-0.2001214432\H,1.6062363327,
 -1.1811134837,-1.8941400805\H,1.8142061335,-2.8925417638,-1.4937322444
 \C,5.7270455221,-2.2878707932,-2.3958796144\O,3.6767167529,-3.42897163
 34,-2.9661959945\H,5.9420320874,-1.2163808841,-2.4055425445\H,6.228248
 5872,-2.695811524,-1.5121486337\H,6.111589345,-2.7709570291,-3.2945156
 083\O,5.7622018661,-2.2621109515,0.9475711887\H,4.9629978997,-2.562831
 102,0.4909890556\H,5.8803518186,-1.3757624251,0.5527752329\H,3.5759008
 739,1.6457531011,0.4558339712\H,-0.5503035572,0.6622133574,0.530399011
 8\\Version=EM64L-G09RevD.01\State=1-A\HF=-1777.8644914\RMSD=2.871e-09\
 RMSF=2.574e-04\Dipole=2.137125,1.6400547,2.0210812\Quadrupole=-59.2361
 248,8.6664574,50.5696673,2.4141188,-0.2482889,0.9651918\PG=C01 [X(C21H
 44N5O9)]\\@


 LORD, MAN... WERE YE BUT WHYLES WHERE I AM, 
 THE GENTILES YE WAD NE'ER ENVY 'EM.        
 IT'S TRUE, THEY NEEDNA STARVE OR SWEAT,     
 THRO' WINTER'S CAULD OR SIMMER'S HEAT...  
 THEY'VE NAE SAIR WARK TO CRAZE THEIR BANES, 
 AND FILL AULD AGE WITH GRIPS AN' GRANES...  
                                             
 BUT HUMAN BODIES ARE SIC FOOLS              
 FOR A' THEIR COLLEGES AND SCHOOLS,           
 THAT WHEN NAE REAL ILLS PERPLEX THEM,       
 THEY MAK ENOW THEMSELVES TO VEX THEM,       
 AN' AYE THE LESS THEY HAE TO STURT THEM,    
 IN LIKE PROPORTION LESS WILL HURT THEM....  
                                             
                (ROBERT BURNS 'THE TWA DOGS')
 Job cpu time:       0 days 10 hours 12 minutes 14.9 seconds.
 File lengths (MBytes):  RWF=    342 Int=      0 D2E=      0 Chk=     40 Scr=      1
 Normal termination of Gaussian 09 at Wed Aug 26 15:34:41 2020.
