 Entering Gaussian System, Link 0=g09
 Initial command:
 /global/apps/Gaussian/09.d01/l1.exe "/global/work/bentesirinbarge/2540371/Gau-64071.inp" -scrdir="/global/work/bentesirinbarge/2540371/"
 Entering Link 1 = /global/apps/Gaussian/09.d01/l1.exe PID=     64072.
  
 Copyright (c) 1988,1990,1992,1993,1995,1998,2003,2009,2013,
            Gaussian, Inc.  All Rights Reserved.
  
 This is part of the Gaussian(R) 09 program.  It is based on
 the Gaussian(R) 03 system (copyright 2003, Gaussian, Inc.),
 the Gaussian(R) 98 system (copyright 1998, Gaussian, Inc.),
 the Gaussian(R) 94 system (copyright 1995, Gaussian, Inc.),
 the Gaussian 92(TM) system (copyright 1992, Gaussian, Inc.),
 the Gaussian 90(TM) system (copyright 1990, Gaussian, Inc.),
 the Gaussian 88(TM) system (copyright 1988, Gaussian, Inc.),
 the Gaussian 86(TM) system (copyright 1986, Carnegie Mellon
 University), and the Gaussian 82(TM) system (copyright 1983,
 Carnegie Mellon University). Gaussian is a federally registered
 trademark of Gaussian, Inc.
  
 This software contains proprietary and confidential information,
 including trade secrets, belonging to Gaussian, Inc.
  
 This software is provided under written license and may be
 used, copied, transmitted, or stored only in accord with that
 written license.
  
 The following legend is applicable only to US Government
 contracts under FAR:
  
                    RESTRICTED RIGHTS LEGEND
  
 Use, reproduction and disclosure by the US Government is
 subject to restrictions as set forth in subparagraphs (a)
 and (c) of the Commercial Computer Software - Restricted
 Rights clause in FAR 52.227-19.
  
 Gaussian, Inc.
 340 Quinnipiac St., Bldg. 40, Wallingford CT 06492
  
  
 ---------------------------------------------------------------
 Warning -- This program may not be used in any manner that
 competes with the business of Gaussian, Inc. or will provide
 assistance to any competitor of Gaussian, Inc.  The licensee
 of this program is prohibited from giving any competitor of
 Gaussian, Inc. access to this program.  By using this program,
 the user acknowledges that Gaussian, Inc. is engaged in the
 business of creating and licensing software in the field of
 computational chemistry and represents and warrants to the
 licensee that it is not a competitor of Gaussian, Inc. and that
 it will not use this program in any manner prohibited above.
 ---------------------------------------------------------------
  

 Cite this work as:
 Gaussian 09, Revision D.01,
 M. J. Frisch, G. W. Trucks, H. B. Schlegel, G. E. Scuseria, 
 M. A. Robb, J. R. Cheeseman, G. Scalmani, V. Barone, B. Mennucci, 
 G. A. Petersson, H. Nakatsuji, M. Caricato, X. Li, H. P. Hratchian, 
 A. F. Izmaylov, J. Bloino, G. Zheng, J. L. Sonnenberg, M. Hada, 
 M. Ehara, K. Toyota, R. Fukuda, J. Hasegawa, M. Ishida, T. Nakajima, 
 Y. Honda, O. Kitao, H. Nakai, T. Vreven, J. A. Montgomery, Jr., 
 J. E. Peralta, F. Ogliaro, M. Bearpark, J. J. Heyd, E. Brothers, 
 K. N. Kudin, V. N. Staroverov, T. Keith, R. Kobayashi, J. Normand, 
 K. Raghavachari, A. Rendell, J. C. Burant, S. S. Iyengar, J. Tomasi, 
 M. Cossi, N. Rega, J. M. Millam, M. Klene, J. E. Knox, J. B. Cross, 
 V. Bakken, C. Adamo, J. Jaramillo, R. Gomperts, R. E. Stratmann, 
 O. Yazyev, A. J. Austin, R. Cammi, C. Pomelli, J. W. Ochterski, 
 R. L. Martin, K. Morokuma, V. G. Zakrzewski, G. A. Voth, 
 P. Salvador, J. J. Dannenberg, S. Dapprich, A. D. Daniels, 
 O. Farkas, J. B. Foresman, J. V. Ortiz, J. Cioslowski, 
 and D. J. Fox, Gaussian, Inc., Wallingford CT, 2013.
 
 ******************************************
 Gaussian 09:  EM64L-G09RevD.01 24-Apr-2013
                22-Aug-2020 
 ******************************************
 %LindaWorkers=cib22-1
 %NProcShared=20
 Will use up to   20 processors via shared memory.
 %mem=16GB
 SetLPE:  input flags=""
 SetLPE:    new flags=" -nodelist 'cib22-1.ibnet'"
 Will use up to    1 processors via Linda.
 --------------------------------------------------------
 #p freq=noraman b3lyp/6-31g(d,p) empiricaldispersion=gd3
 --------------------------------------------------------
 1/10=4,30=1,38=1/1,3;
 2/12=2,17=6,18=5,40=1/2;
 3/5=1,6=6,7=101,11=2,16=1,25=1,30=1,71=2,74=-5,124=31,140=1/1,2,3;
 4//1;
 5/5=2,38=5,98=1/2;
 8/6=4,10=90,11=11/1;
 11/6=1,8=1,9=11,15=111,16=1/1,2,10;
 10/6=1/2;
 6/7=2,8=2,9=2,10=2,18=1,28=1/1;
 7/8=1,10=1,25=1/1,2,3,16;
 1/10=4,30=1/3;
 99//99;
 Leave Link    1 at Sat Aug 22 22:23:14 2020, MaxMem=  2147483648 cpu:         1.4
 (Enter /global/apps/Gaussian/09.d01/l101.exe)
 -------------------
 Title Card Required
 -------------------
 Symbolic Z-matrix:
 Charge = -1 Multiplicity = 1
 C                    -3.80442   3.40411  -1.21644 
 C                    -2.58219   3.37865  -0.29725 
 N                    -4.74114   2.43423  -1.08225 
 C                    -2.37006   2.25559   0.71372 
 H                    -1.70633   3.4398   -0.953 
 H                    -2.62066   4.33929   0.23381 
 O                    -3.93026   4.32625  -2.02553 
 C                    -5.93214   2.49655  -1.91099 
 H                    -4.60109   1.63079  -0.46341 
 H                    -1.61595   2.58541   1.44764 
 O                    -1.91843   1.07093   0.09401 
 H                    -3.29314   2.0496    1.27185 
 H                    -5.67197   2.52341  -2.97474 
 H                    -6.51402   3.4002   -1.69651 
 H                    -6.54716   1.61671  -1.71121 
 C                    -3.08068  -0.31477   0.15516 
 C                    -2.94692  -0.75761  -1.2856 
 O                    -2.36065  -1.19774   0.9671 
 O                    -4.17301   0.15119   0.5914 
 H                    -1.91392  -1.01193  -1.52731 
 H                    -3.58439  -1.63536  -1.4343 
 H                    -3.29004   0.05039  -1.93185 
 C                    -2.47789  -0.94732   2.36323 
 H                    -1.95025  -1.76135   2.86566 
 H                    -2.00975   0.00999   2.62628 
 H                    -3.5233   -0.92404   2.68446 
 N                     0.41962   0.70757   0.81545 
 C                     1.36224   1.4067    0.18526 
 C                     1.04539   0.02529   1.83846 
 N                     2.55689   1.20125   0.75231 
 H                     1.18808   2.04755  -0.6653 
 C                     2.38894   0.32495   1.80803 
 H                     0.49788  -0.62639   2.50064 
 C                     3.53295  -0.15608   2.64928 
 C                     4.36183   0.97625   3.28553 
 H                     3.12323  -0.80625   3.43072 
 H                     4.19683  -0.78163   2.04171 
 H                     5.21036   0.55718   3.83503 
 H                     3.75646   1.56646   3.98246 
 H                     4.74806   1.65253   2.51858 
 C                    -7.46587  -0.87623  -0.1639 
 C                    -6.92693  -2.2566    0.20067 
 H                    -6.7505   -0.07375   0.02883 
 H                    -8.38493  -0.69294   0.40038 
 H                    -7.73265  -0.87779  -1.22529 
 N                    -5.66093  -2.24457   0.68184 
 O                    -7.59677  -3.27881   0.05148 
 C                    -4.94564  -3.45787   1.01443 
 H                    -5.16774  -1.35308   0.7498 
 H                    -5.25156  -4.26117   0.33865 
 H                    -5.1523   -3.79215   2.04073 
 H                    -3.87414  -3.2714    0.91438 
 C                     5.65225   1.3975   -0.12052 
 C                     7.12324   1.82411  -0.12218 
 O                     4.80692   2.30748   0.13992 
 O                     5.37199   0.18656  -0.33787 
 C                     8.07151   0.79897  -0.73702 
 H                     7.39218   2.02162   0.92445 
 H                     7.185     2.7929   -0.63012 
 H                     9.11182   1.13984  -0.68587 
 H                     7.82402   0.61786  -1.78773 
 H                     7.99491  -0.16131  -0.22064 
 N                     3.54967  -1.77362  -1.372 
 C                     2.106    -1.86482  -1.23207 
 C                     4.20883  -2.54206  -2.29457 
 H                     4.02438  -0.94559  -1.00556 
 H                     1.81478  -1.57399  -0.22088 
 H                     1.57649  -1.21902  -1.94588 
 H                     1.7987   -2.89445  -1.42161 
 C                     5.70465  -2.27413  -2.39355 
 O                     3.65251  -3.41942  -2.95243 
 H                     5.92206  -1.20306  -2.39368 
 H                     6.20788  -2.69038  -1.51491 
 H                     6.08447  -2.75076  -3.29775 
 O                     5.75995  -2.22492   0.93396 
 H                     4.9588   -2.5367    0.48866 
 H                     5.85243  -1.33211   0.54349 
 H                     3.50237   1.66083   0.44123 
 H                    -0.7327    0.78092   0.49644 
 
 NAtoms=     79 NQM=       79 NQMF=       0 NMMI=      0 NMMIF=      0
                NMic=       0 NMicF=      0.
                    Isotopes and Nuclear Properties:
 (Nuclear quadrupole moments (NQMom) in fm**2, nuclear magnetic moments (NMagM)
  in nuclear magnetons)

  Atom         1           2           3           4           5           6           7           8           9          10
 IAtWgt=          12          12          14          12           1           1          16          12           1           1
 AtmWgt=  12.0000000  12.0000000  14.0030740  12.0000000   1.0078250   1.0078250  15.9949146  12.0000000   1.0078250   1.0078250
 NucSpn=           0           0           2           0           1           1           0           0           1           1
 AtZEff=   0.0000000   0.0000000   0.0000000   0.0000000   0.0000000   0.0000000   0.0000000   0.0000000   0.0000000   0.0000000
 NQMom=    0.0000000   0.0000000   2.0440000   0.0000000   0.0000000   0.0000000   0.0000000   0.0000000   0.0000000   0.0000000
 NMagM=    0.0000000   0.0000000   0.4037610   0.0000000   2.7928460   2.7928460   0.0000000   0.0000000   2.7928460   2.7928460
 AtZNuc=   6.0000000   6.0000000   7.0000000   6.0000000   1.0000000   1.0000000   8.0000000   6.0000000   1.0000000   1.0000000

  Atom        11          12          13          14          15          16          17          18          19          20
 IAtWgt=          16           1           1           1           1          12          12          16          16           1
 AtmWgt=  15.9949146   1.0078250   1.0078250   1.0078250   1.0078250  12.0000000  12.0000000  15.9949146  15.9949146   1.0078250
 NucSpn=           0           1           1           1           1           0           0           0           0           1
 AtZEff=   0.0000000   0.0000000   0.0000000   0.0000000   0.0000000   0.0000000   0.0000000   0.0000000   0.0000000   0.0000000
 NQMom=    0.0000000   0.0000000   0.0000000   0.0000000   0.0000000   0.0000000   0.0000000   0.0000000   0.0000000   0.0000000
 NMagM=    0.0000000   2.7928460   2.7928460   2.7928460   2.7928460   0.0000000   0.0000000   0.0000000   0.0000000   2.7928460
 AtZNuc=   8.0000000   1.0000000   1.0000000   1.0000000   1.0000000   6.0000000   6.0000000   8.0000000   8.0000000   1.0000000

  Atom        21          22          23          24          25          26          27          28          29          30
 IAtWgt=           1           1          12           1           1           1          14          12          12          14
 AtmWgt=   1.0078250   1.0078250  12.0000000   1.0078250   1.0078250   1.0078250  14.0030740  12.0000000  12.0000000  14.0030740
 NucSpn=           1           1           0           1           1           1           2           0           0           2
 AtZEff=   0.0000000   0.0000000   0.0000000   0.0000000   0.0000000   0.0000000   0.0000000   0.0000000   0.0000000   0.0000000
 NQMom=    0.0000000   0.0000000   0.0000000   0.0000000   0.0000000   0.0000000   2.0440000   0.0000000   0.0000000   2.0440000
 NMagM=    2.7928460   2.7928460   0.0000000   2.7928460   2.7928460   2.7928460   0.4037610   0.0000000   0.0000000   0.4037610
 AtZNuc=   1.0000000   1.0000000   6.0000000   1.0000000   1.0000000   1.0000000   7.0000000   6.0000000   6.0000000   7.0000000

  Atom        31          32          33          34          35          36          37          38          39          40
 IAtWgt=           1          12           1          12          12           1           1           1           1           1
 AtmWgt=   1.0078250  12.0000000   1.0078250  12.0000000  12.0000000   1.0078250   1.0078250   1.0078250   1.0078250   1.0078250
 NucSpn=           1           0           1           0           0           1           1           1           1           1
 AtZEff=   0.0000000   0.0000000   0.0000000   0.0000000   0.0000000   0.0000000   0.0000000   0.0000000   0.0000000   0.0000000
 NQMom=    0.0000000   0.0000000   0.0000000   0.0000000   0.0000000   0.0000000   0.0000000   0.0000000   0.0000000   0.0000000
 NMagM=    2.7928460   0.0000000   2.7928460   0.0000000   0.0000000   2.7928460   2.7928460   2.7928460   2.7928460   2.7928460
 AtZNuc=   1.0000000   6.0000000   1.0000000   6.0000000   6.0000000   1.0000000   1.0000000   1.0000000   1.0000000   1.0000000

  Atom        41          42          43          44          45          46          47          48          49          50
 IAtWgt=          12          12           1           1           1          14          16          12           1           1
 AtmWgt=  12.0000000  12.0000000   1.0078250   1.0078250   1.0078250  14.0030740  15.9949146  12.0000000   1.0078250   1.0078250
 NucSpn=           0           0           1           1           1           2           0           0           1           1
 AtZEff=   0.0000000   0.0000000   0.0000000   0.0000000   0.0000000   0.0000000   0.0000000   0.0000000   0.0000000   0.0000000
 NQMom=    0.0000000   0.0000000   0.0000000   0.0000000   0.0000000   2.0440000   0.0000000   0.0000000   0.0000000   0.0000000
 NMagM=    0.0000000   0.0000000   2.7928460   2.7928460   2.7928460   0.4037610   0.0000000   0.0000000   2.7928460   2.7928460
 AtZNuc=   6.0000000   6.0000000   1.0000000   1.0000000   1.0000000   7.0000000   8.0000000   6.0000000   1.0000000   1.0000000

  Atom        51          52          53          54          55          56          57          58          59          60
 IAtWgt=           1           1          12          12          16          16          12           1           1           1
 AtmWgt=   1.0078250   1.0078250  12.0000000  12.0000000  15.9949146  15.9949146  12.0000000   1.0078250   1.0078250   1.0078250
 NucSpn=           1           1           0           0           0           0           0           1           1           1
 AtZEff=   0.0000000   0.0000000   0.0000000   0.0000000   0.0000000   0.0000000   0.0000000   0.0000000   0.0000000   0.0000000
 NQMom=    0.0000000   0.0000000   0.0000000   0.0000000   0.0000000   0.0000000   0.0000000   0.0000000   0.0000000   0.0000000
 NMagM=    2.7928460   2.7928460   0.0000000   0.0000000   0.0000000   0.0000000   0.0000000   2.7928460   2.7928460   2.7928460
 AtZNuc=   1.0000000   1.0000000   6.0000000   6.0000000   8.0000000   8.0000000   6.0000000   1.0000000   1.0000000   1.0000000

  Atom        61          62          63          64          65          66          67          68          69          70
 IAtWgt=           1           1          14          12          12           1           1           1           1          12
 AtmWgt=   1.0078250   1.0078250  14.0030740  12.0000000  12.0000000   1.0078250   1.0078250   1.0078250   1.0078250  12.0000000
 NucSpn=           1           1           2           0           0           1           1           1           1           0
 AtZEff=   0.0000000   0.0000000   0.0000000   0.0000000   0.0000000   0.0000000   0.0000000   0.0000000   0.0000000   0.0000000
 NQMom=    0.0000000   0.0000000   2.0440000   0.0000000   0.0000000   0.0000000   0.0000000   0.0000000   0.0000000   0.0000000
 NMagM=    2.7928460   2.7928460   0.4037610   0.0000000   0.0000000   2.7928460   2.7928460   2.7928460   2.7928460   0.0000000
 AtZNuc=   1.0000000   1.0000000   7.0000000   6.0000000   6.0000000   1.0000000   1.0000000   1.0000000   1.0000000   6.0000000

  Atom        71          72          73          74          75          76          77          78          79
 IAtWgt=          16           1           1           1          16           1           1           1           1
 AtmWgt=  15.9949146   1.0078250   1.0078250   1.0078250  15.9949146   1.0078250   1.0078250   1.0078250   1.0078250
 NucSpn=           0           1           1           1           0           1           1           1           1
 AtZEff=   0.0000000   0.0000000   0.0000000   0.0000000   0.0000000   0.0000000   0.0000000   0.0000000   0.0000000
 NQMom=    0.0000000   0.0000000   0.0000000   0.0000000   0.0000000   0.0000000   0.0000000   0.0000000   0.0000000
 NMagM=    0.0000000   2.7928460   2.7928460   2.7928460   0.0000000   2.7928460   2.7928460   2.7928460   2.7928460
 AtZNuc=   8.0000000   1.0000000   1.0000000   1.0000000   8.0000000   1.0000000   1.0000000   1.0000000   1.0000000
 Leave Link  101 at Sat Aug 22 22:23:14 2020, MaxMem=  2147483648 cpu:         2.7
 (Enter /global/apps/Gaussian/09.d01/l103.exe)

 GradGradGradGradGradGradGradGradGradGradGradGradGradGradGradGradGradGrad
 Berny optimization.
 Initialization pass.
 Trust Radius=3.00D-01 FncErr=1.00D-07 GrdErr=1.00D-07
 Number of steps in this run=      2 maximum allowed number of steps=      2.
 GradGradGradGradGradGradGradGradGradGradGradGradGradGradGradGradGradGrad

 Leave Link  103 at Sat Aug 22 22:23:14 2020, MaxMem=  2147483648 cpu:         0.4
 (Enter /global/apps/Gaussian/09.d01/l202.exe)
 Stoichiometry    C21H44N5O9(1-)
 Framework group  C1[X(C21H44N5O9)]
 Deg. of freedom   231
 Full point group                 C1      NOp   1
 Largest Abelian subgroup         C1      NOp   1
 Largest concise Abelian subgroup C1      NOp   1
                         Standard orientation:                         
 ---------------------------------------------------------------------
 Center     Atomic      Atomic             Coordinates (Angstroms)
 Number     Number       Type             X           Y           Z
 ---------------------------------------------------------------------
      1          6           0       -3.804419    3.404113   -1.216440
      2          6           0       -2.582193    3.378651   -0.297252
      3          7           0       -4.741142    2.434232   -1.082251
      4          6           0       -2.370060    2.255590    0.713719
      5          1           0       -1.706333    3.439796   -0.953004
      6          1           0       -2.620657    4.339286    0.233808
      7          8           0       -3.930264    4.326253   -2.025525
      8          6           0       -5.932136    2.496553   -1.910990
      9          1           0       -4.601094    1.630788   -0.463411
     10          1           0       -1.615946    2.585414    1.447643
     11          8           0       -1.918433    1.070929    0.094008
     12          1           0       -3.293140    2.049599    1.271846
     13          1           0       -5.671973    2.523411   -2.974743
     14          1           0       -6.514024    3.400195   -1.696505
     15          1           0       -6.547161    1.616705   -1.711209
     16          6           0       -3.080677   -0.314774    0.155159
     17          6           0       -2.946921   -0.757613   -1.285601
     18          8           0       -2.360648   -1.197742    0.967098
     19          8           0       -4.173007    0.151187    0.591401
     20          1           0       -1.913920   -1.011934   -1.527314
     21          1           0       -3.584388   -1.635361   -1.434296
     22          1           0       -3.290038    0.050394   -1.931845
     23          6           0       -2.477891   -0.947320    2.363231
     24          1           0       -1.950246   -1.761347    2.865661
     25          1           0       -2.009745    0.009986    2.626277
     26          1           0       -3.523301   -0.924043    2.684461
     27          7           0        0.419615    0.707571    0.815451
     28          6           0        1.362235    1.406701    0.185263
     29          6           0        1.045391    0.025287    1.838464
     30          7           0        2.556888    1.201251    0.752305
     31          1           0        1.188078    2.047547   -0.665300
     32          6           0        2.388941    0.324953    1.808030
     33          1           0        0.497876   -0.626386    2.500640
     34          6           0        3.532952   -0.156075    2.649276
     35          6           0        4.361827    0.976247    3.285533
     36          1           0        3.123225   -0.806250    3.430724
     37          1           0        4.196830   -0.781626    2.041709
     38          1           0        5.210356    0.557182    3.835029
     39          1           0        3.756455    1.566463    3.982464
     40          1           0        4.748057    1.652526    2.518575
     41          6           0       -7.465869   -0.876228   -0.163904
     42          6           0       -6.926927   -2.256598    0.200673
     43          1           0       -6.750497   -0.073745    0.028825
     44          1           0       -8.384926   -0.692941    0.400380
     45          1           0       -7.732649   -0.877788   -1.225286
     46          7           0       -5.660929   -2.244572    0.681838
     47          8           0       -7.596765   -3.278811    0.051481
     48          6           0       -4.945644   -3.457871    1.014426
     49          1           0       -5.167738   -1.353076    0.749797
     50          1           0       -5.251562   -4.261174    0.338646
     51          1           0       -5.152299   -3.792152    2.040733
     52          1           0       -3.874143   -3.271402    0.914384
     53          6           0        5.652250    1.397497   -0.120522
     54          6           0        7.123235    1.824110   -0.122184
     55          8           0        4.806923    2.307484    0.139917
     56          8           0        5.371992    0.186557   -0.337870
     57          6           0        8.071513    0.798973   -0.737024
     58          1           0        7.392178    2.021620    0.924445
     59          1           0        7.185000    2.792895   -0.630119
     60          1           0        9.111816    1.139842   -0.685868
     61          1           0        7.824022    0.617857   -1.787729
     62          1           0        7.994911   -0.161310   -0.220635
     63          7           0        3.549669   -1.773618   -1.372002
     64          6           0        2.106002   -1.864823   -1.232070
     65          6           0        4.208829   -2.542062   -2.294568
     66          1           0        4.024376   -0.945591   -1.005560
     67          1           0        1.814783   -1.573993   -0.220879
     68          1           0        1.576488   -1.219024   -1.945876
     69          1           0        1.798697   -2.894454   -1.421612
     70          6           0        5.704649   -2.274127   -2.393550
     71          8           0        3.652513   -3.419420   -2.952434
     72          1           0        5.922057   -1.203058   -2.393678
     73          1           0        6.207884   -2.690377   -1.514913
     74          1           0        6.084471   -2.750757   -3.297751
     75          8           0        5.759951   -2.224916    0.933957
     76          1           0        4.958800   -2.536695    0.488655
     77          1           0        5.852432   -1.332113    0.543488
     78          1           0        3.502372    1.660830    0.441231
     79          1           0       -0.732701    0.780924    0.496440
 ---------------------------------------------------------------------
 Rotational constants (GHZ):      0.1537263      0.0425633      0.0388602
 Leave Link  202 at Sat Aug 22 22:23:14 2020, MaxMem=  2147483648 cpu:         1.0
 (Enter /global/apps/Gaussian/09.d01/l301.exe)
 Standard basis: 6-31G(d,p) (6D, 7F)
 Ernie: Thresh=  0.10000D-02 Tol=  0.10000D-05 Strict=F.
 There are   745 symmetry adapted cartesian basis functions of A   symmetry.
 There are   745 symmetry adapted basis functions of A   symmetry.
   745 basis functions,  1288 primitive gaussians,   745 cartesian basis functions
   139 alpha electrons      139 beta electrons
       nuclear repulsion energy      4054.5487280136 Hartrees.
 IExCor=  402 DFT=T Ex+Corr=B3LYP ExCW=0 ScaHFX=  0.200000
 ScaDFX=  0.800000  0.720000  1.000000  0.810000 ScalE2=  1.000000  1.000000
 IRadAn=      0 IRanWt=     -1 IRanGd=            0 ICorTp=0 IEmpDi=131
 NAtoms=   79 NActive=   79 NUniq=   79 SFac= 1.00D+00 NAtFMM=   60 NAOKFM=T Big=T
 Integral buffers will be    131072 words long.
 Raffenetti 2 integral format.
 Two-electron integral symmetry is turned on.
 R6Disp:  Grimme-D3 Dispersion energy=       -0.0964812072 Hartrees.
 Nuclear repulsion after empirical dispersion term =     4054.4522468064 Hartrees.
 Leave Link  301 at Sat Aug 22 22:23:14 2020, MaxMem=  2147483648 cpu:         1.8
 (Enter /global/apps/Gaussian/09.d01/l302.exe)
 NPDir=0 NMtPBC=     1 NCelOv=     1 NCel=       1 NClECP=     1 NCelD=      1
         NCelK=      1 NCelE2=     1 NClLst=     1 CellRange=     0.0.
 One-electron integrals computed using PRISM.
 NBasis=   745 RedAO= T EigKep=  1.11D-03  NBF=   745
 NBsUse=   745 1.00D-06 EigRej= -1.00D+00 NBFU=   745
 Precomputing XC quadrature grid using
 IXCGrd= 4 IRadAn=           0 IRanWt=          -1 IRanGd=           0 AccXCQ= 0.00D+00.
 Generated NRdTot=       0 NPtTot=           0 NUsed=           0 NTot=          32
 NSgBfM=   663   663   663   671   671 MxSgAt=    79 MxSgA2=    79.
 Leave Link  302 at Sat Aug 22 22:23:16 2020, MaxMem=  2147483648 cpu:        30.0
 (Enter /global/apps/Gaussian/09.d01/l303.exe)
 DipDrv:  MaxL=1.
 Leave Link  303 at Sat Aug 22 22:23:16 2020, MaxMem=  2147483648 cpu:         4.3
 (Enter /global/apps/Gaussian/09.d01/l401.exe)
 ExpMin= 1.61D-01 ExpMax= 5.48D+03 ExpMxC= 8.25D+02 IAcc=1 IRadAn=         1 AccDes= 0.00D+00
 Harris functional with IExCor=  402 and IRadAn=       1 diagonalized for initial guess.
 HarFok:  IExCor=  402 AccDes= 0.00D+00 IRadAn=         1 IDoV= 1 UseB2=F ITyADJ=14
 ICtDFT=  3500011 ScaDFX=  1.000000  1.000000  1.000000  1.000000
 FoFCou: FMM=F IPFlag=           0 FMFlag=      100000 FMFlg1=        2001
         NFxFlg=           0 DoJE=T BraDBF=F KetDBF=T FulRan=T
         wScrn=  0.000000 ICntrl=     500 IOpCl=  0 I1Cent=   200000004 NGrid=           0
         NMat0=    1 NMatS0=      1 NMatT0=    0 NMatD0=    1 NMtDS0=    0 NMtDT0=    0
 Petite list used in FoFCou.
 Harris En= -1778.12197758411    
 JPrj=0 DoOrth=F DoCkMO=F.
 Leave Link  401 at Sat Aug 22 22:23:18 2020, MaxMem=  2147483648 cpu:        34.0
 (Enter /global/apps/Gaussian/09.d01/l502.exe)
 Closed shell SCF:
 Using DIIS extrapolation, IDIIS=  1040.
 Integral symmetry usage will be decided dynamically.
 IVT=     1704170 IEndB=     1704170 NGot=  2147483648 MDV=  2146351889
 LenX=  2146351889 LenY=  2145796119
 Requested convergence on RMS density matrix=1.00D-08 within 128 cycles.
 Requested convergence on MAX density matrix=1.00D-06.
 Requested convergence on             energy=1.00D-06.
 No special actions if energy rises.
 Fock matrices will be formed incrementally for  20 cycles.
 Integral accuracy reduced to 1.0D-05 until final iterations.

 Cycle   1  Pass 0  IDiag  1:
 FoFJK:  IHMeth= 1 ICntrl=       0 DoSepK=F KAlg= 0 I1Cent=   0 FoldK=F
 IRaf= 660000000 NMat=   1 IRICut=       1 DoRegI=T DoRafI=F ISym2E= 0.
 FoFCou: FMM=T IPFlag=           0 FMFlag=      100000 FMFlg1=        2001
         NFxFlg=           0 DoJE=F BraDBF=F KetDBF=F FulRan=T
         wScrn=  0.000000 ICntrl=       0 IOpCl=  0 I1Cent=           0 NGrid=           0
         NMat0=    1 NMatS0=      1 NMatT0=    0 NMatD0=    1 NMtDS0=    0 NMtDT0=    0
 Symmetry not used in FoFCou.
 FMM levels:  10  Number of levels for PrismC:   9
 E= -1776.71833236670    
 DIIS: error= 2.70D-02 at cycle   1 NSaved=   1.
 NSaved= 1 IEnMin= 1 EnMin= -1776.71833236670     IErMin= 1 ErrMin= 2.70D-02
 ErrMax= 2.70D-02  0.00D+00 EMaxC= 1.00D-01 BMatC= 1.29D+00 BMatP= 1.29D+00
 IDIUse=3 WtCom= 7.30D-01 WtEn= 2.70D-01
 Coeff-Com:  0.100D+01
 Coeff-En:   0.100D+01
 Coeff:      0.100D+01
 Gap=     0.285 Goal=   None    Shift=    0.000
 GapD=    0.285 DampG=1.000 DampE=0.500 DampFc=0.5000 IDamp=-1.
 Damping current iteration by 5.00D-01
 RMSDP=3.43D-03 MaxDP=2.08D-01              OVMax= 2.60D-01

 Cycle   2  Pass 0  IDiag  1:
 RMSU=  1.71D-03    CP:  9.87D-01
 E= -1777.13710853366     Delta-E=       -0.418776166953 Rises=F Damp=T
 DIIS: error= 8.63D-03 at cycle   2 NSaved=   2.
 NSaved= 2 IEnMin= 2 EnMin= -1777.13710853366     IErMin= 2 ErrMin= 8.63D-03
 ErrMax= 8.63D-03  0.00D+00 EMaxC= 1.00D-01 BMatC= 1.28D-01 BMatP= 1.29D+00
 IDIUse=3 WtCom= 9.14D-01 WtEn= 8.63D-02
 Coeff-Com:  0.164D+00 0.836D+00
 Coeff-En:   0.247D+00 0.753D+00
 Coeff:      0.171D+00 0.829D+00
 Gap=     0.271 Goal=   None    Shift=    0.000
 RMSDP=9.28D-04 MaxDP=8.36D-02 DE=-4.19D-01 OVMax= 1.99D-01

 Cycle   3  Pass 0  IDiag  1:
 RMSU=  8.21D-04    CP:  9.79D-01  7.52D-01
 E= -1777.75057305140     Delta-E=       -0.613464517741 Rises=F Damp=F
 DIIS: error= 1.34D-02 at cycle   3 NSaved=   3.
 NSaved= 3 IEnMin= 3 EnMin= -1777.75057305140     IErMin= 2 ErrMin= 8.63D-03
 ErrMax= 1.34D-02  0.00D+00 EMaxC= 1.00D-01 BMatC= 1.32D-01 BMatP= 1.28D-01
 IDIUse=3 WtCom= 8.66D-01 WtEn= 1.34D-01
 Coeff-Com:  0.544D-01 0.503D+00 0.442D+00
 Coeff-En:   0.000D+00 0.000D+00 0.100D+01
 Coeff:      0.472D-01 0.436D+00 0.517D+00
 Gap=     0.248 Goal=   None    Shift=    0.000
 RMSDP=6.42D-04 MaxDP=5.72D-02 DE=-6.13D-01 OVMax= 1.05D-01

 Cycle   4  Pass 0  IDiag  1:
 RMSU=  3.44D-04    CP:  9.84D-01  8.51D-01  3.76D-01
 E= -1777.83524674197     Delta-E=       -0.084673690570 Rises=F Damp=F
 DIIS: error= 6.65D-03 at cycle   4 NSaved=   4.
 NSaved= 4 IEnMin= 4 EnMin= -1777.83524674197     IErMin= 4 ErrMin= 6.65D-03
 ErrMax= 6.65D-03  0.00D+00 EMaxC= 1.00D-01 BMatC= 3.32D-02 BMatP= 1.28D-01
 IDIUse=3 WtCom= 9.34D-01 WtEn= 6.65D-02
 Coeff-Com:  0.900D-02 0.923D-01 0.335D+00 0.564D+00
 Coeff-En:   0.000D+00 0.000D+00 0.235D+00 0.765D+00
 Coeff:      0.840D-02 0.861D-01 0.328D+00 0.577D+00
 Gap=     0.237 Goal=   None    Shift=    0.000
 RMSDP=2.60D-04 MaxDP=2.33D-02 DE=-8.47D-02 OVMax= 4.08D-02

 Cycle   5  Pass 0  IDiag  1:
 RMSU=  1.01D-04    CP:  9.83D-01  8.05D-01  5.80D-01  5.61D-01
 E= -1777.86003602152     Delta-E=       -0.024789279553 Rises=F Damp=F
 DIIS: error= 1.43D-03 at cycle   5 NSaved=   5.
 NSaved= 5 IEnMin= 5 EnMin= -1777.86003602152     IErMin= 5 ErrMin= 1.43D-03
 ErrMax= 1.43D-03  0.00D+00 EMaxC= 1.00D-01 BMatC= 2.35D-03 BMatP= 3.32D-02
 IDIUse=3 WtCom= 9.86D-01 WtEn= 1.43D-02
 Coeff-Com:  0.176D-02 0.125D-01 0.157D+00 0.350D+00 0.479D+00
 Coeff-En:   0.000D+00 0.000D+00 0.000D+00 0.000D+00 0.100D+01
 Coeff:      0.174D-02 0.123D-01 0.155D+00 0.345D+00 0.486D+00
 Gap=     0.235 Goal=   None    Shift=    0.000
 RMSDP=6.74D-05 MaxDP=4.68D-03 DE=-2.48D-02 OVMax= 9.88D-03

 Cycle   6  Pass 0  IDiag  1:
 RMSU=  2.65D-05    CP:  9.83D-01  8.13D-01  5.68D-01  6.39D-01  4.73D-01
 E= -1777.86188888426     Delta-E=       -0.001852862742 Rises=F Damp=F
 DIIS: error= 2.46D-04 at cycle   6 NSaved=   6.
 NSaved= 6 IEnMin= 6 EnMin= -1777.86188888426     IErMin= 6 ErrMin= 2.46D-04
 ErrMax= 2.46D-04  0.00D+00 EMaxC= 1.00D-01 BMatC= 1.15D-04 BMatP= 2.35D-03
 IDIUse=3 WtCom= 9.98D-01 WtEn= 2.46D-03
 Coeff-Com:  0.230D-03-0.135D-02 0.483D-01 0.118D+00 0.248D+00 0.587D+00
 Coeff-En:   0.000D+00 0.000D+00 0.000D+00 0.000D+00 0.000D+00 0.100D+01
 Coeff:      0.230D-03-0.135D-02 0.482D-01 0.117D+00 0.248D+00 0.588D+00
 Gap=     0.234 Goal=   None    Shift=    0.000
 RMSDP=1.57D-05 MaxDP=1.68D-03 DE=-1.85D-03 OVMax= 1.80D-03

 Cycle   7  Pass 0  IDiag  1:
 RMSU=  9.53D-06    CP:  9.83D-01  8.12D-01  5.69D-01  6.34D-01  5.36D-01
                    CP:  6.00D-01
 E= -1777.86196564760     Delta-E=       -0.000076763336 Rises=F Damp=F
 DIIS: error= 1.31D-04 at cycle   7 NSaved=   7.
 NSaved= 7 IEnMin= 7 EnMin= -1777.86196564760     IErMin= 7 ErrMin= 1.31D-04
 ErrMax= 1.31D-04  0.00D+00 EMaxC= 1.00D-01 BMatC= 2.02D-05 BMatP= 1.15D-04
 IDIUse=3 WtCom= 9.99D-01 WtEn= 1.31D-03
 Coeff-Com:  0.173D-04-0.183D-02 0.168D-01 0.427D-01 0.117D+00 0.372D+00
 Coeff-Com:  0.453D+00
 Coeff-En:   0.000D+00 0.000D+00 0.000D+00 0.000D+00 0.000D+00 0.782D-01
 Coeff-En:   0.922D+00
 Coeff:      0.172D-04-0.183D-02 0.168D-01 0.427D-01 0.117D+00 0.371D+00
 Coeff:      0.454D+00
 Gap=     0.234 Goal=   None    Shift=    0.000
 RMSDP=5.93D-06 MaxDP=5.74D-04 DE=-7.68D-05 OVMax= 8.81D-04

 Initial convergence to 1.0D-05 achieved.  Increase integral accuracy.
 Cycle   8  Pass 1  IDiag  1:
 E= -1777.86210781419     Delta-E=       -0.000142166592 Rises=F Damp=F
 DIIS: error= 1.04D-04 at cycle   1 NSaved=   1.
 NSaved= 1 IEnMin= 1 EnMin= -1777.86210781419     IErMin= 1 ErrMin= 1.04D-04
 ErrMax= 1.04D-04  0.00D+00 EMaxC= 1.00D-01 BMatC= 4.41D-06 BMatP= 4.41D-06
 IDIUse=3 WtCom= 9.99D-01 WtEn= 1.04D-03
 Coeff-Com:  0.100D+01
 Coeff-En:   0.100D+01
 Coeff:      0.100D+01
 Gap=     0.234 Goal=   None    Shift=    0.000
 RMSDP=5.93D-06 MaxDP=5.74D-04 DE=-1.42D-04 OVMax= 8.11D-04

 Cycle   9  Pass 1  IDiag  1:
 RMSU=  2.22D-05    CP:  1.00D+00
 E= -1777.86210793060     Delta-E=       -0.000000116413 Rises=F Damp=F
 DIIS: error= 1.04D-04 at cycle   2 NSaved=   2.
 NSaved= 2 IEnMin= 2 EnMin= -1777.86210793060     IErMin= 1 ErrMin= 1.04D-04
 ErrMax= 1.04D-04  0.00D+00 EMaxC= 1.00D-01 BMatC= 5.17D-06 BMatP= 4.41D-06
 IDIUse=3 WtCom= 4.95D-01 WtEn= 5.05D-01
 Coeff-Com:  0.527D+00 0.473D+00
 Coeff-En:   0.490D+00 0.510D+00
 Coeff:      0.508D+00 0.492D+00
 Gap=     0.234 Goal=   None    Shift=    0.000
 RMSDP=4.24D-06 MaxDP=5.45D-04 DE=-1.16D-07 OVMax= 8.92D-04

 Cycle  10  Pass 1  IDiag  1:
 RMSU=  4.19D-06    CP:  1.00D+00  9.70D-01
 E= -1777.86211049888     Delta-E=       -0.000002568280 Rises=F Damp=F
 DIIS: error= 6.84D-05 at cycle   3 NSaved=   3.
 NSaved= 3 IEnMin= 3 EnMin= -1777.86211049888     IErMin= 3 ErrMin= 6.84D-05
 ErrMax= 6.84D-05  0.00D+00 EMaxC= 1.00D-01 BMatC= 1.91D-06 BMatP= 4.41D-06
 IDIUse=1 WtCom= 1.00D+00 WtEn= 0.00D+00
 Coeff-Com:  0.207D-01 0.374D+00 0.605D+00
 Coeff:      0.207D-01 0.374D+00 0.605D+00
 Gap=     0.234 Goal=   None    Shift=    0.000
 RMSDP=1.73D-06 MaxDP=2.19D-04 DE=-2.57D-06 OVMax= 3.93D-04

 Cycle  11  Pass 1  IDiag  1:
 RMSU=  6.21D-07    CP:  1.00D+00  9.91D-01  6.32D-01
 E= -1777.86211191001     Delta-E=       -0.000001411127 Rises=F Damp=F
 DIIS: error= 7.55D-06 at cycle   4 NSaved=   4.
 NSaved= 4 IEnMin= 4 EnMin= -1777.86211191001     IErMin= 4 ErrMin= 7.55D-06
 ErrMax= 7.55D-06  0.00D+00 EMaxC= 1.00D-01 BMatC= 6.81D-08 BMatP= 1.91D-06
 IDIUse=1 WtCom= 1.00D+00 WtEn= 0.00D+00
 Coeff-Com: -0.384D-02 0.208D+00 0.359D+00 0.437D+00
 Coeff:     -0.384D-02 0.208D+00 0.359D+00 0.437D+00
 Gap=     0.234 Goal=   None    Shift=    0.000
 RMSDP=3.59D-07 MaxDP=3.63D-05 DE=-1.41D-06 OVMax= 4.44D-05

 Cycle  12  Pass 1  IDiag  1:
 RMSU=  1.38D-07    CP:  1.00D+00  9.92D-01  6.40D-01  4.70D-01
 E= -1777.86211196760     Delta-E=       -0.000000057592 Rises=F Damp=F
 DIIS: error= 1.41D-06 at cycle   5 NSaved=   5.
 NSaved= 5 IEnMin= 5 EnMin= -1777.86211196760     IErMin= 5 ErrMin= 1.41D-06
 ErrMax= 1.41D-06  0.00D+00 EMaxC= 1.00D-01 BMatC= 2.89D-09 BMatP= 6.81D-08
 IDIUse=1 WtCom= 1.00D+00 WtEn= 0.00D+00
 Coeff-Com: -0.309D-02 0.114D+00 0.198D+00 0.268D+00 0.423D+00
 Coeff:     -0.309D-02 0.114D+00 0.198D+00 0.268D+00 0.423D+00
 Gap=     0.234 Goal=   None    Shift=    0.000
 RMSDP=7.28D-08 MaxDP=6.66D-06 DE=-5.76D-08 OVMax= 8.93D-06

 Cycle  13  Pass 1  IDiag  1:
 RMSU=  5.31D-08    CP:  1.00D+00  9.92D-01  6.40D-01  4.90D-01  6.51D-01
 E= -1777.86211196978     Delta-E=       -0.000000002182 Rises=F Damp=F
 DIIS: error= 3.62D-07 at cycle   6 NSaved=   6.
 NSaved= 6 IEnMin= 6 EnMin= -1777.86211196978     IErMin= 6 ErrMin= 3.62D-07
 ErrMax= 3.62D-07  0.00D+00 EMaxC= 1.00D-01 BMatC= 1.53D-10 BMatP= 2.89D-09
 IDIUse=1 WtCom= 1.00D+00 WtEn= 0.00D+00
 Coeff-Com: -0.120D-02 0.366D-01 0.639D-01 0.929D-01 0.225D+00 0.583D+00
 Coeff:     -0.120D-02 0.366D-01 0.639D-01 0.929D-01 0.225D+00 0.583D+00
 Gap=     0.234 Goal=   None    Shift=    0.000
 RMSDP=2.07D-08 MaxDP=1.81D-06 DE=-2.18D-09 OVMax= 2.39D-06

 Cycle  14  Pass 1  IDiag  1:
 RMSU=  1.57D-08    CP:  1.00D+00  9.92D-01  6.39D-01  4.90D-01  7.03D-01
                    CP:  7.90D-01
 E= -1777.86211196992     Delta-E=       -0.000000000140 Rises=F Damp=F
 DIIS: error= 1.46D-07 at cycle   7 NSaved=   7.
 NSaved= 7 IEnMin= 7 EnMin= -1777.86211196992     IErMin= 7 ErrMin= 1.46D-07
 ErrMax= 1.46D-07  0.00D+00 EMaxC= 1.00D-01 BMatC= 2.34D-11 BMatP= 1.53D-10
 IDIUse=1 WtCom= 1.00D+00 WtEn= 0.00D+00
 Coeff-Com: -0.334D-03 0.814D-02 0.143D-01 0.231D-01 0.784D-01 0.335D+00
 Coeff-Com:  0.542D+00
 Coeff:     -0.334D-03 0.814D-02 0.143D-01 0.231D-01 0.784D-01 0.335D+00
 Coeff:      0.542D+00
 Gap=     0.234 Goal=   None    Shift=    0.000
 RMSDP=7.39D-09 MaxDP=5.80D-07 DE=-1.40D-10 OVMax= 9.18D-07

 SCF Done:  E(RB3LYP) =  -1777.86211197     A.U. after   14 cycles
            NFock= 14  Conv=0.74D-08     -V/T= 2.0092
 KE= 1.761662082949D+03 PE=-1.228385673891D+04 EE= 4.689880297187D+03
 Leave Link  502 at Sat Aug 22 22:24:22 2020, MaxMem=  2147483648 cpu:      1245.3
 (Enter /global/apps/Gaussian/09.d01/l801.exe)
 DoSCS=F DFT=T ScalE2(SS,OS)=  1.000000  1.000000
 Range of M.O.s used for correlation:     1   745
 NBasis=   745 NAE=   139 NBE=   139 NFC=     0 NFV=     0
 NROrb=    745 NOA=   139 NOB=   139 NVA=   606 NVB=   606
 Leave Link  801 at Sat Aug 22 22:24:22 2020, MaxMem=  2147483648 cpu:         0.6
 (Enter /global/apps/Gaussian/09.d01/l1101.exe)
 Using compressed storage, NAtomX=    79.
 Will process     80 centers per pass.
 R6Disp: Adding Grimme-D3 dispersion energy 1st derivatives to the gradient.
 Leave Link 1101 at Sat Aug 22 22:24:34 2020, MaxMem=  2147483648 cpu:       239.4
 (Enter /global/apps/Gaussian/09.d01/l1102.exe)
 Symmetrizing basis deriv contribution to polar:
 IMax=3 JMax=2 DiffMx= 0.00D+00
 Leave Link 1102 at Sat Aug 22 22:24:34 2020, MaxMem=  2147483648 cpu:         2.1
 (Enter /global/apps/Gaussian/09.d01/l1110.exe)
 Forming Gx(P) for the SCF density, NAtomX=    79.
 Integral derivatives from FoFJK, PRISM(SPDF).
 Do as many integral derivatives as possible in FoFJK.
 G2DrvN: MDV=    2147482912.
 G2DrvN: will do    80 centers at a time, making    1 passes.
 Calling FoFCou, ICntrl=  3107 FMM=T I1Cent=   0 AccDes= 0.00D+00.
 FoFJK:  IHMeth= 1 ICntrl=    3107 DoSepK=F KAlg= 0 I1Cent=   0 FoldK=F
 IRaf=         0 NMat=   1 IRICut=       1 DoRegI=T DoRafI=F ISym2E= 0.
 FoFCou: FMM=T IPFlag=           0 FMFlag=      100000 FMFlg1=        2001
         NFxFlg=           0 DoJE=F BraDBF=F KetDBF=F FulRan=T
         wScrn=  0.000000 ICntrl=    3107 IOpCl=  0 I1Cent=           0 NGrid=           0
         NMat0=    1 NMatS0=      1 NMatT0=    0 NMatD0=    1 NMtDS0=    0 NMtDT0=    0
 Symmetry not used in FoFCou.
 FMM levels:  10  Number of levels for PrismC:   9
 End of G2Drv F.D. properties file   721 does not exist.
 End of G2Drv F.D. properties file   722 does not exist.
 End of G2Drv F.D. properties file   788 does not exist.
 Leave Link 1110 at Sat Aug 22 22:28:27 2020, MaxMem=  2147483648 cpu:      4613.2
 (Enter /global/apps/Gaussian/09.d01/l1002.exe)
 Minotr:  Closed shell wavefunction.
          IDoAtm=11111111111111111111111111111111111111111111111111
          IDoAtm=11111111111111111111111111111
          Direct CPHF calculation.
          Differentiating once with respect to electric field.
                with respect to dipole field.
          Differentiating once with respect to nuclear coordinates.
          Requested convergence is 1.0D-08 RMS, and 1.0D-07 maximum.
          Secondary convergence is 1.0D-12 RMS, and 1.0D-12 maximum.
          NewPWx=T KeepS1=F KeepF1=F KeepIn=T MapXYZ=F SortEE=F KeepMc=T.
          MDV=    2147482109 using IRadAn=       2.
 Generate precomputed XC quadrature information.
          Solving linear equations simultaneously, MaxMat=      72.
 FoF2E skips out because all densities are zero.
 CalDSu exits because no D1Ps are significant.
 FoFJK:  IHMeth= 1 ICntrl=       0 DoSepK=F KAlg= 0 I1Cent=   0 FoldK=F
 IRaf= 660000000 NMat=  72 IRICut=       1 DoRegI=T DoRafI=F ISym2E= 2.
 FoFCou: FMM=T IPFlag=           0 FMFlag=      100000 FMFlg1=        2001
         NFxFlg=           0 DoJE=F BraDBF=F KetDBF=F FulRan=T
         wScrn=  0.000000 ICntrl=       0 IOpCl=  0 I1Cent=           0 NGrid=           0
         NMat0=   72 NMatS0=     72 NMatT0=    0 NMatD0=   72 NMtDS0=    0 NMtDT0=    0
 Symmetry not used in FoFCou.
 FMM levels:  10  Number of levels for PrismC:   9
          There are   240 degrees of freedom in the 1st order CPHF.  IDoFFX=6 NUNeed=     3.
    240 vectors produced by pass  0 Test12= 8.42D-14 1.00D-09 XBig12= 2.33D+02 4.37D+00.
 AX will form    72 AO Fock derivatives at one time.
    237 vectors produced by pass  1 Test12= 8.42D-14 1.00D-09 XBig12= 4.81D+01 1.09D+00.
    237 vectors produced by pass  2 Test12= 8.42D-14 1.00D-09 XBig12= 2.99D-01 4.98D-02.
    237 vectors produced by pass  3 Test12= 8.42D-14 1.00D-09 XBig12= 9.10D-04 2.17D-03.
    237 vectors produced by pass  4 Test12= 8.42D-14 1.00D-09 XBig12= 1.32D-06 6.34D-05.
    146 vectors produced by pass  5 Test12= 8.42D-14 1.00D-09 XBig12= 1.11D-09 1.95D-06.
      7 vectors produced by pass  6 Test12= 8.42D-14 1.00D-09 XBig12= 8.06D-13 6.85D-08.
      3 vectors produced by pass  7 Test12= 8.42D-14 1.00D-09 XBig12= 7.94D-16 2.08D-09.
 InvSVY:  IOpt=1 It=  1 EMax= 2.49D-14
 Solved reduced A of dimension  1344 with   240 vectors.
 FullF1:  Do perturbations    1 to     3.
 Isotropic polarizability for W=    0.000000      305.23 Bohr**3.
 End of Minotr F.D. properties file   721 does not exist.
 End of Minotr F.D. properties file   722 does not exist.
 End of Minotr F.D. properties file   788 does not exist.
 Leave Link 1002 at Sat Aug 22 22:47:12 2020, MaxMem=  2147483648 cpu:     22450.1
 (Enter /global/apps/Gaussian/09.d01/l601.exe)
 Copying SCF densities to generalized density rwf, IOpCl= 0 IROHF=0.

 **********************************************************************

            Population analysis using the SCF density.

 **********************************************************************

 Orbital symmetries:
       Occupied  (A) (A) (A) (A) (A) (A) (A) (A) (A) (A) (A) (A)
                 (A) (A) (A) (A) (A) (A) (A) (A) (A) (A) (A) (A)
                 (A) (A) (A) (A) (A) (A) (A) (A) (A) (A) (A) (A)
                 (A) (A) (A) (A) (A) (A) (A) (A) (A) (A) (A) (A)
                 (A) (A) (A) (A) (A) (A) (A) (A) (A) (A) (A) (A)
                 (A) (A) (A) (A) (A) (A) (A) (A) (A) (A) (A) (A)
                 (A) (A) (A) (A) (A) (A) (A) (A) (A) (A) (A) (A)
                 (A) (A) (A) (A) (A) (A) (A) (A) (A) (A) (A) (A)
                 (A) (A) (A) (A) (A) (A) (A) (A) (A) (A) (A) (A)
                 (A) (A) (A) (A) (A) (A) (A) (A) (A) (A) (A) (A)
                 (A) (A) (A) (A) (A) (A) (A) (A) (A) (A) (A) (A)
                 (A) (A) (A) (A) (A) (A) (A)
       Virtual   (A) (A) (A) (A) (A) (A) (A) (A) (A) (A) (A) (A)
                 (A) (A) (A) (A) (A) (A) (A) (A) (A) (A) (A) (A)
                 (A) (A) (A) (A) (A) (A) (A) (A) (A) (A) (A) (A)
                 (A) (A) (A) (A) (A) (A) (A) (A) (A) (A) (A) (A)
                 (A) (A) (A) (A) (A) (A) (A) (A) (A) (A) (A) (A)
                 (A) (A) (A) (A) (A) (A) (A) (A) (A) (A) (A) (A)
                 (A) (A) (A) (A) (A) (A) (A) (A) (A) (A) (A) (A)
                 (A) (A) (A) (A) (A) (A) (A) (A) (A) (A) (A) (A)
                 (A) (A) (A) (A) (A) (A) (A) (A) (A) (A) (A) (A)
                 (A) (A) (A) (A) (A) (A) (A) (A) (A) (A) (A) (A)
                 (A) (A) (A) (A) (A) (A) (A) (A) (A) (A) (A) (A)
                 (A) (A) (A) (A) (A) (A) (A) (A) (A) (A) (A) (A)
                 (A) (A) (A) (A) (A) (A) (A) (A) (A) (A) (A) (A)
                 (A) (A) (A) (A) (A) (A) (A) (A) (A) (A) (A) (A)
                 (A) (A) (A) (A) (A) (A) (A) (A) (A) (A) (A) (A)
                 (A) (A) (A) (A) (A) (A) (A) (A) (A) (A) (A) (A)
                 (A) (A) (A) (A) (A) (A) (A) (A) (A) (A) (A) (A)
                 (A) (A) (A) (A) (A) (A) (A) (A) (A) (A) (A) (A)
                 (A) (A) (A) (A) (A) (A) (A) (A) (A) (A) (A) (A)
                 (A) (A) (A) (A) (A) (A) (A) (A) (A) (A) (A) (A)
                 (A) (A) (A) (A) (A) (A) (A) (A) (A) (A) (A) (A)
                 (A) (A) (A) (A) (A) (A) (A) (A) (A) (A) (A) (A)
                 (A) (A) (A) (A) (A) (A) (A) (A) (A) (A) (A) (A)
                 (A) (A) (A) (A) (A) (A) (A) (A) (A) (A) (A) (A)
                 (A) (A) (A) (A) (A) (A) (A) (A) (A) (A) (A) (A)
                 (A) (A) (A) (A) (A) (A) (A) (A) (A) (A) (A) (A)
                 (A) (A) (A) (A) (A) (A) (A) (A) (A) (A) (A) (A)
                 (A) (A) (A) (A) (A) (A) (A) (A) (A) (A) (A) (A)
                 (A) (A) (A) (A) (A) (A) (A) (A) (A) (A) (A) (A)
                 (A) (A) (A) (A) (A) (A) (A) (A) (A) (A) (A) (A)
                 (A) (A) (A) (A) (A) (A) (A) (A) (A) (A) (A) (A)
                 (A) (A) (A) (A) (A) (A) (A) (A) (A) (A) (A) (A)
                 (A) (A) (A) (A) (A) (A) (A) (A) (A) (A) (A) (A)
                 (A) (A) (A) (A) (A) (A) (A) (A) (A) (A) (A) (A)
                 (A) (A) (A) (A) (A) (A) (A) (A) (A) (A) (A) (A)
                 (A) (A) (A) (A) (A) (A) (A) (A) (A) (A) (A) (A)
                 (A) (A) (A) (A) (A) (A) (A) (A) (A) (A) (A) (A)
                 (A) (A) (A) (A) (A) (A) (A) (A) (A) (A) (A) (A)
                 (A) (A) (A) (A) (A) (A) (A) (A) (A) (A) (A) (A)
                 (A) (A) (A) (A) (A) (A) (A) (A) (A) (A) (A) (A)
                 (A) (A) (A) (A) (A) (A) (A) (A) (A) (A) (A) (A)
                 (A) (A) (A) (A) (A) (A) (A) (A) (A) (A) (A) (A)
                 (A) (A) (A) (A) (A) (A) (A) (A) (A) (A) (A) (A)
                 (A) (A) (A) (A) (A) (A) (A) (A) (A) (A) (A) (A)
                 (A) (A) (A) (A) (A) (A) (A) (A) (A) (A) (A) (A)
                 (A) (A) (A) (A) (A) (A) (A) (A) (A) (A) (A) (A)
                 (A) (A) (A) (A) (A) (A) (A) (A) (A) (A) (A) (A)
                 (A) (A) (A) (A) (A) (A) (A) (A) (A) (A) (A) (A)
                 (A) (A) (A) (A) (A) (A) (A) (A) (A) (A) (A) (A)
                 (A) (A) (A) (A) (A) (A) (A) (A) (A) (A) (A) (A)
                 (A) (A) (A) (A) (A) (A)
 The electronic state is 1-A.
 Alpha  occ. eigenvalues --  -19.08449 -19.04616 -19.03040 -19.02310 -19.02104
 Alpha  occ. eigenvalues --  -19.01963 -19.01119 -19.01032 -19.00954 -14.29868
 Alpha  occ. eigenvalues --  -14.29204 -14.25756 -14.25532 -14.25184 -10.23711
 Alpha  occ. eigenvalues --  -10.19854 -10.18925 -10.18695 -10.18518 -10.18514
 Alpha  occ. eigenvalues --  -10.15634 -10.15167 -10.14332 -10.14268 -10.13125
 Alpha  occ. eigenvalues --  -10.12708 -10.11933 -10.11642 -10.10306 -10.10271
 Alpha  occ. eigenvalues --  -10.10269 -10.10249 -10.09674 -10.09387 -10.08691
 Alpha  occ. eigenvalues --   -0.99250  -0.95752  -0.95104  -0.92989  -0.92907
 Alpha  occ. eigenvalues --   -0.92673  -0.90868  -0.89136  -0.88893  -0.86291
 Alpha  occ. eigenvalues --   -0.81942  -0.81698  -0.81261  -0.81160  -0.71723
 Alpha  occ. eigenvalues --   -0.68344  -0.68154  -0.66547  -0.65993  -0.65977
 Alpha  occ. eigenvalues --   -0.64945  -0.60948  -0.60631  -0.59546  -0.58559
 Alpha  occ. eigenvalues --   -0.56649  -0.56094  -0.54721  -0.53493  -0.52261
 Alpha  occ. eigenvalues --   -0.48674  -0.48435  -0.47668  -0.47463  -0.47265
 Alpha  occ. eigenvalues --   -0.44029  -0.42848  -0.41789  -0.41291  -0.40527
 Alpha  occ. eigenvalues --   -0.40456  -0.40232  -0.39532  -0.38590  -0.38281
 Alpha  occ. eigenvalues --   -0.37917  -0.37480  -0.37203  -0.36945  -0.36888
 Alpha  occ. eigenvalues --   -0.36769  -0.36500  -0.36307  -0.36007  -0.35974
 Alpha  occ. eigenvalues --   -0.35552  -0.35467  -0.35121  -0.33634  -0.33336
 Alpha  occ. eigenvalues --   -0.33170  -0.33131  -0.32498  -0.32308  -0.32027
 Alpha  occ. eigenvalues --   -0.31502  -0.30824  -0.30745  -0.30386  -0.30184
 Alpha  occ. eigenvalues --   -0.30090  -0.29905  -0.29839  -0.29742  -0.29324
 Alpha  occ. eigenvalues --   -0.29105  -0.28591  -0.28341  -0.28049  -0.27956
 Alpha  occ. eigenvalues --   -0.27248  -0.26479  -0.26025  -0.25772  -0.25577
 Alpha  occ. eigenvalues --   -0.25549  -0.25150  -0.24477  -0.22576  -0.20286
 Alpha  occ. eigenvalues --   -0.19115  -0.18532  -0.17857  -0.17776  -0.17293
 Alpha  occ. eigenvalues --   -0.16801  -0.16424  -0.16214  -0.15618  -0.15507
 Alpha  occ. eigenvalues --   -0.15415  -0.15171  -0.14797  -0.14535
 Alpha virt. eigenvalues --    0.08899   0.11599   0.12142   0.12311   0.12374
 Alpha virt. eigenvalues --    0.12917   0.14285   0.15526   0.16316   0.16980
 Alpha virt. eigenvalues --    0.17596   0.18512   0.18860   0.19134   0.19461
 Alpha virt. eigenvalues --    0.20135   0.20584   0.20917   0.21567   0.22002
 Alpha virt. eigenvalues --    0.22478   0.22597   0.23115   0.23127   0.23520
 Alpha virt. eigenvalues --    0.23703   0.23853   0.24185   0.24527   0.24701
 Alpha virt. eigenvalues --    0.25060   0.25239   0.25298   0.25503   0.25709
 Alpha virt. eigenvalues --    0.26174   0.26228   0.26343   0.26443   0.26995
 Alpha virt. eigenvalues --    0.27080   0.27168   0.27358   0.27749   0.27963
 Alpha virt. eigenvalues --    0.28275   0.28471   0.28901   0.29222   0.29969
 Alpha virt. eigenvalues --    0.30570   0.31434   0.31600   0.32092   0.32404
 Alpha virt. eigenvalues --    0.32696   0.32844   0.33574   0.34022   0.34981
 Alpha virt. eigenvalues --    0.35186   0.35485   0.35972   0.36283   0.36735
 Alpha virt. eigenvalues --    0.37164   0.37642   0.40014   0.41225   0.41988
 Alpha virt. eigenvalues --    0.42880   0.44017   0.45694   0.46197   0.46569
 Alpha virt. eigenvalues --    0.48422   0.50403   0.51546   0.52328   0.53697
 Alpha virt. eigenvalues --    0.55149   0.55916   0.56282   0.57974   0.58403
 Alpha virt. eigenvalues --    0.58660   0.59189   0.59860   0.60404   0.60602
 Alpha virt. eigenvalues --    0.61058   0.61633   0.61874   0.62235   0.62442
 Alpha virt. eigenvalues --    0.62758   0.63126   0.63306   0.63648   0.64347
 Alpha virt. eigenvalues --    0.64657   0.64849   0.65531   0.65783   0.66225
 Alpha virt. eigenvalues --    0.66552   0.66702   0.67445   0.67767   0.68145
 Alpha virt. eigenvalues --    0.68442   0.68995   0.69411   0.69468   0.70199
 Alpha virt. eigenvalues --    0.70795   0.71523   0.71984   0.72190   0.72666
 Alpha virt. eigenvalues --    0.73157   0.73814   0.74510   0.75104   0.75385
 Alpha virt. eigenvalues --    0.75690   0.76306   0.77009   0.77607   0.78499
 Alpha virt. eigenvalues --    0.78791   0.79473   0.80122   0.80788   0.81483
 Alpha virt. eigenvalues --    0.82121   0.82719   0.82916   0.83333   0.84180
 Alpha virt. eigenvalues --    0.84839   0.85024   0.85366   0.86230   0.86375
 Alpha virt. eigenvalues --    0.86677   0.86947   0.87419   0.87656   0.88406
 Alpha virt. eigenvalues --    0.88775   0.89034   0.89338   0.89471   0.90646
 Alpha virt. eigenvalues --    0.91486   0.91849   0.92049   0.92478   0.92605
 Alpha virt. eigenvalues --    0.93060   0.93424   0.93538   0.94302   0.94482
 Alpha virt. eigenvalues --    0.94711   0.95362   0.95652   0.95915   0.96077
 Alpha virt. eigenvalues --    0.96560   0.96849   0.97081   0.97336   0.97455
 Alpha virt. eigenvalues --    0.97936   0.98311   0.98789   0.99149   0.99751
 Alpha virt. eigenvalues --    0.99967   1.00355   1.00548   1.01019   1.01086
 Alpha virt. eigenvalues --    1.01328   1.01889   1.02079   1.02176   1.02506
 Alpha virt. eigenvalues --    1.03501   1.03559   1.04143   1.05271   1.05724
 Alpha virt. eigenvalues --    1.05898   1.06835   1.07565   1.08102   1.09106
 Alpha virt. eigenvalues --    1.09166   1.10727   1.12053   1.12395   1.12603
 Alpha virt. eigenvalues --    1.13319   1.13442   1.14124   1.14760   1.14920
 Alpha virt. eigenvalues --    1.17014   1.17224   1.18244   1.18992   1.19672
 Alpha virt. eigenvalues --    1.20434   1.21388   1.22072   1.22500   1.22878
 Alpha virt. eigenvalues --    1.23697   1.24735   1.25179   1.27008   1.27703
 Alpha virt. eigenvalues --    1.28358   1.29783   1.30305   1.30551   1.31024
 Alpha virt. eigenvalues --    1.31974   1.32242   1.33211   1.33666   1.35279
 Alpha virt. eigenvalues --    1.35804   1.37052   1.37851   1.38152   1.38498
 Alpha virt. eigenvalues --    1.38870   1.39198   1.39738   1.40269   1.40972
 Alpha virt. eigenvalues --    1.41116   1.41721   1.43158   1.44347   1.44523
 Alpha virt. eigenvalues --    1.45974   1.46115   1.46713   1.47388   1.48198
 Alpha virt. eigenvalues --    1.48459   1.48684   1.49024   1.49737   1.51063
 Alpha virt. eigenvalues --    1.52291   1.53094   1.53743   1.54073   1.54630
 Alpha virt. eigenvalues --    1.54966   1.57376   1.59721   1.60270   1.61392
 Alpha virt. eigenvalues --    1.62042   1.62972   1.63137   1.63927   1.65097
 Alpha virt. eigenvalues --    1.65668   1.66525   1.67150   1.67740   1.68660
 Alpha virt. eigenvalues --    1.70046   1.70293   1.72192   1.72849   1.73530
 Alpha virt. eigenvalues --    1.74482   1.75095   1.75331   1.75800   1.75911
 Alpha virt. eigenvalues --    1.77794   1.78443   1.78922   1.79708   1.81161
 Alpha virt. eigenvalues --    1.81365   1.81508   1.81714   1.83030   1.83397
 Alpha virt. eigenvalues --    1.84946   1.85470   1.86897   1.87987   1.88344
 Alpha virt. eigenvalues --    1.88824   1.89251   1.89709   1.89866   1.90132
 Alpha virt. eigenvalues --    1.90540   1.91256   1.91369   1.91414   1.92613
 Alpha virt. eigenvalues --    1.93760   1.94169   1.94767   1.94995   1.95236
 Alpha virt. eigenvalues --    1.95913   1.96266   1.96909   1.97583   1.97611
 Alpha virt. eigenvalues --    1.98229   1.98383   1.98836   1.98993   1.99228
 Alpha virt. eigenvalues --    1.99511   2.01051   2.01651   2.02260   2.02806
 Alpha virt. eigenvalues --    2.03450   2.04320   2.04607   2.05430   2.05938
 Alpha virt. eigenvalues --    2.06867   2.07594   2.07989   2.10053   2.10512
 Alpha virt. eigenvalues --    2.10942   2.11166   2.11234   2.11344   2.11684
 Alpha virt. eigenvalues --    2.12104   2.12486   2.12616   2.12947   2.13016
 Alpha virt. eigenvalues --    2.13078   2.13448   2.14158   2.14640   2.14765
 Alpha virt. eigenvalues --    2.14922   2.15429   2.15622   2.15808   2.16328
 Alpha virt. eigenvalues --    2.16505   2.17012   2.17624   2.17794   2.18375
 Alpha virt. eigenvalues --    2.18501   2.18957   2.19146   2.19989   2.20105
 Alpha virt. eigenvalues --    2.20421   2.20942   2.21092   2.21733   2.22234
 Alpha virt. eigenvalues --    2.22569   2.22688   2.24218   2.24806   2.25468
 Alpha virt. eigenvalues --    2.26414   2.26731   2.26993   2.27690   2.28398
 Alpha virt. eigenvalues --    2.28764   2.29696   2.30067   2.31682   2.32228
 Alpha virt. eigenvalues --    2.32538   2.32653   2.34235   2.34862   2.35317
 Alpha virt. eigenvalues --    2.36859   2.36967   2.37840   2.38340   2.38748
 Alpha virt. eigenvalues --    2.39171   2.39768   2.40424   2.40916   2.41849
 Alpha virt. eigenvalues --    2.42726   2.43561   2.44588   2.44992   2.46264
 Alpha virt. eigenvalues --    2.46948   2.47486   2.48354   2.48969   2.49771
 Alpha virt. eigenvalues --    2.49928   2.50689   2.51131   2.51718   2.52405
 Alpha virt. eigenvalues --    2.53162   2.53574   2.54347   2.55471   2.56124
 Alpha virt. eigenvalues --    2.56667   2.56959   2.57820   2.58796   2.59315
 Alpha virt. eigenvalues --    2.60271   2.60937   2.62395   2.63014   2.63983
 Alpha virt. eigenvalues --    2.64035   2.64382   2.65022   2.66522   2.66782
 Alpha virt. eigenvalues --    2.67512   2.68210   2.68542   2.68760   2.69959
 Alpha virt. eigenvalues --    2.70489   2.71138   2.71298   2.72418   2.73420
 Alpha virt. eigenvalues --    2.74066   2.74466   2.74518   2.74728   2.75072
 Alpha virt. eigenvalues --    2.75676   2.75904   2.77034   2.77558   2.77865
 Alpha virt. eigenvalues --    2.77960   2.78218   2.78500   2.79102   2.79366
 Alpha virt. eigenvalues --    2.79855   2.79876   2.80259   2.81065   2.81950
 Alpha virt. eigenvalues --    2.82769   2.83418   2.84684   2.85993   2.87922
 Alpha virt. eigenvalues --    2.88892   2.90191   2.90879   2.91496   2.91594
 Alpha virt. eigenvalues --    2.92178   2.92418   2.92631   2.92966   2.93454
 Alpha virt. eigenvalues --    2.93866   2.94254   2.94962   2.95576   2.95875
 Alpha virt. eigenvalues --    2.96271   2.97056   2.97200   2.97430   2.97695
 Alpha virt. eigenvalues --    2.97837   2.98274   2.98726   2.99301   2.99630
 Alpha virt. eigenvalues --    3.01247   3.01837   3.02516   3.04339   3.04906
 Alpha virt. eigenvalues --    3.06617   3.07905   3.08928   3.09428   3.10413
 Alpha virt. eigenvalues --    3.14759   3.15567   3.16425   3.17877   3.18580
 Alpha virt. eigenvalues --    3.18867   3.21888   3.22897   3.23717   3.23780
 Alpha virt. eigenvalues --    3.24207   3.28467   3.28816   3.29206   3.30393
 Alpha virt. eigenvalues --    3.30469   3.30882   3.31835   3.32088   3.33476
 Alpha virt. eigenvalues --    3.33640   3.38330   3.39168   3.39430   3.42455
 Alpha virt. eigenvalues --    3.45226   3.47248   3.47958   3.48783   3.49541
 Alpha virt. eigenvalues --    3.50033   3.50303   3.51381   3.51524   3.51970
 Alpha virt. eigenvalues --    3.52246   3.52692   3.53206   3.53535   3.54145
 Alpha virt. eigenvalues --    3.54365   3.54725   3.55162   3.55592   3.56286
 Alpha virt. eigenvalues --    3.56556   3.57338   3.61976   3.62263   3.64297
 Alpha virt. eigenvalues --    3.67788   3.70614   3.71750   3.73635   3.77457
 Alpha virt. eigenvalues --    3.83968   3.95903   4.12975   4.15779   4.16056
 Alpha virt. eigenvalues --    4.18101   4.20778   4.21262   4.23835   4.25611
 Alpha virt. eigenvalues --    4.26413   4.29534   4.31038   4.31233   4.36385
 Alpha virt. eigenvalues --    4.37774   4.38826   4.42014   4.43791   4.45747
 Alpha virt. eigenvalues --    4.49977   4.54109   4.55254   4.56731   4.58496
 Alpha virt. eigenvalues --    4.59328   4.63228   4.66367   4.69195   4.72345
 Alpha virt. eigenvalues --    4.73319   4.74929   4.75855   4.76920   4.83740
 Alpha virt. eigenvalues --    4.85244
          Condensed to atoms (all electrons):
 Mulliken charges:
               1
     1  C    0.567406
     2  C   -0.249257
     3  N   -0.554671
     4  C    0.040444
     5  H    0.115334
     6  H    0.104810
     7  O   -0.556808
     8  C   -0.158934
     9  H    0.317143
    10  H    0.062845
    11  O   -0.641880
    12  H    0.106347
    13  H    0.117907
    14  H    0.111299
    15  H    0.099355
    16  C    0.709179
    17  C   -0.328556
    18  O   -0.491248
    19  O   -0.624843
    20  H    0.112264
    21  H    0.108914
    22  H    0.117664
    23  C   -0.076801
    24  H    0.097352
    25  H    0.098037
    26  H    0.115699
    27  N   -0.543447
    28  C    0.286484
    29  C    0.013230
    30  N   -0.533805
    31  H    0.141463
    32  C    0.269524
    33  H    0.102506
    34  C   -0.244067
    35  C   -0.333086
    36  H    0.089351
    37  H    0.144139
    38  H    0.097155
    39  H    0.090585
    40  H    0.135637
    41  C   -0.404862
    42  C    0.549122
    43  H    0.128694
    44  H    0.117619
    45  H    0.122379
    46  N   -0.541477
    47  O   -0.545685
    48  C   -0.174769
    49  H    0.315120
    50  H    0.124946
    51  H    0.096747
    52  H    0.121742
    53  C    0.590661
    54  C   -0.250014
    55  O   -0.609412
    56  O   -0.584494
    57  C   -0.307289
    58  H    0.107441
    59  H    0.103958
    60  H    0.072354
    61  H    0.104532
    62  H    0.121696
    63  N   -0.545200
    64  C   -0.173636
    65  C    0.530279
    66  H    0.300640
    67  H    0.113723
    68  H    0.102872
    69  H    0.132382
    70  C   -0.400446
    71  O   -0.532200
    72  H    0.130702
    73  H    0.136001
    74  H    0.104520
    75  O   -0.661992
    76  H    0.299619
    77  H    0.346221
    78  H    0.376805
    79  H    0.446025
 Sum of Mulliken charges =  -1.00000
 Mulliken charges with hydrogens summed into heavy atoms:
               1
     1  C    0.567406
     2  C   -0.029112
     3  N   -0.237529
     4  C    0.209636
     7  O   -0.556808
     8  C    0.169627
    11  O   -0.641880
    16  C    0.709179
    17  C    0.010287
    18  O   -0.491248
    19  O   -0.624843
    23  C    0.234288
    27  N   -0.097422
    28  C    0.427947
    29  C    0.115736
    30  N   -0.156999
    32  C    0.269524
    34  C   -0.010577
    35  C   -0.009709
    41  C   -0.036170
    42  C    0.549122
    46  N   -0.226357
    47  O   -0.545685
    48  C    0.168666
    53  C    0.590661
    54  C   -0.038615
    55  O   -0.609412
    56  O   -0.584494
    57  C   -0.008706
    63  N   -0.244560
    64  C    0.175341
    65  C    0.530279
    70  C   -0.029224
    71  O   -0.532200
    75  O   -0.016151
 APT charges:
               1
     1  C    0.998438
     2  C   -0.012718
     3  N   -0.789662
     4  C    0.435816
     5  H   -0.019781
     6  H   -0.043169
     7  O   -0.817915
     8  C    0.389869
     9  H    0.372496
    10  H   -0.088869
    11  O   -1.341807
    12  H   -0.006545
    13  H   -0.041822
    14  H   -0.056218
    15  H   -0.015432
    16  C    1.641997
    17  C   -0.041597
    18  O   -0.897912
    19  O   -1.128353
    20  H   -0.004345
    21  H   -0.014792
    22  H    0.010330
    23  C    0.429333
    24  H   -0.021450
    25  H   -0.037579
    26  H   -0.014871
    27  N   -0.715892
    28  C    0.267665
    29  C   -0.012396
    30  N   -0.624080
    31  H    0.088701
    32  C    0.131403
    33  H    0.074013
    34  C    0.102370
    35  C    0.070858
    36  H   -0.041984
    37  H    0.035078
    38  H   -0.042955
    39  H   -0.037829
    40  H    0.027111
    41  C   -0.041357
    42  C    1.100041
    43  H    0.011582
    44  H   -0.018946
    45  H   -0.001314
    46  N   -0.848712
    47  O   -0.843809
    48  C    0.317923
    49  H    0.414487
    50  H   -0.001161
    51  H   -0.070619
    52  H    0.016580
    53  C    1.238166
    54  C    0.000088
    55  O   -1.156135
    56  O   -1.038902
    57  C    0.075184
    58  H   -0.038128
    59  H   -0.036787
    60  H   -0.065571
    61  H   -0.020791
    62  H    0.005228
    63  N   -0.809710
    64  C    0.309469
    65  C    1.046681
    66  H    0.346349
    67  H   -0.007887
    68  H   -0.061555
    69  H    0.020820
    70  C   -0.088619
    71  O   -0.786157
    72  H    0.030921
    73  H    0.048279
    74  H   -0.015222
    75  O   -0.705936
    76  H    0.274144
    77  H    0.400984
    78  H    0.770092
    79  H    1.024794
 Sum of APT charges =  -1.00000
 APT charges with hydrogens summed into heavy atoms:
               1
     1  C    0.998438
     2  C   -0.075668
     3  N   -0.417166
     4  C    0.340402
     7  O   -0.817915
     8  C    0.276397
    11  O   -1.341807
    16  C    1.641997
    17  C   -0.050405
    18  O   -0.897912
    19  O   -1.128353
    23  C    0.355434
    27  N    0.308902
    28  C    0.356366
    29  C    0.061617
    30  N    0.146012
    32  C    0.131403
    34  C    0.095464
    35  C    0.017185
    41  C   -0.050036
    42  C    1.100041
    46  N   -0.434224
    47  O   -0.843809
    48  C    0.262724
    53  C    1.238166
    54  C   -0.074827
    55  O   -1.156135
    56  O   -1.038902
    57  C   -0.005950
    63  N   -0.463361
    64  C    0.260846
    65  C    1.046681
    70  C   -0.024641
    71  O   -0.786157
    75  O   -0.030807
 Electronic spatial extent (au):  <R**2>=          28339.2106
 Charge=             -1.0000 electrons
 Dipole moment (field-independent basis, Debye):
    X=              1.1916    Y=              3.3436    Z=              5.4433  Tot=              6.4984
 Quadrupole moment (field-independent basis, Debye-Ang):
   XX=           -371.9691   YY=           -284.5422   ZZ=           -230.1073
   XY=              3.0371   XZ=             -3.2907   YZ=             -0.9699
 Traceless Quadrupole moment (field-independent basis, Debye-Ang):
   XX=            -76.4296   YY=             10.9974   ZZ=             65.4322
   XY=              3.0371   XZ=             -3.2907   YZ=             -0.9699
 Octapole moment (field-independent basis, Debye-Ang**2):
  XXX=            250.7527  YYY=            -22.8232  ZZZ=             54.2711  XYY=            112.6300
  XXY=            301.9042  XXZ=             15.1091  XZZ=            -39.2641  YZZ=             11.3461
  YYZ=            115.8182  XYZ=            -85.7087
 Hexadecapole moment (field-independent basis, Debye-Ang**3):
 XXXX=         -34652.6631 YYYY=          -6817.4387 ZZZZ=          -3248.8842 XXXY=          -1634.5240
 XXXZ=           -145.5543 YYYX=            214.7321 YYYZ=            101.8173 ZZZX=             35.6854
 ZZZY=           -129.7954 XXYY=          -7700.3906 XXZZ=          -5398.3846 YYZZ=          -1818.3532
 XXYZ=            133.3179 YYXZ=           -161.5303 ZZXY=            327.6396
 N-N= 4.054452246806D+03 E-N=-1.228385673863D+04  KE= 1.761662082949D+03
  Exact polarizability: 369.704  14.231 291.224  18.221  -6.306 254.750
 Approx polarizability: 451.872  23.119 427.612  17.770 -13.738 374.343
 No NMR shielding tensors so no spin-rotation constants.
 Leave Link  601 at Sat Aug 22 22:47:14 2020, MaxMem=  2147483648 cpu:        21.2
 (Enter /global/apps/Gaussian/09.d01/l701.exe)
 Compute integral second derivatives.
 ... and contract with generalized density number  0.
 R6Disp: Adding Grimme-D3 dispersion energy 2nd derivatives to the Hessian.
 Leave Link  701 at Sat Aug 22 22:47:17 2020, MaxMem=  2147483648 cpu:        46.3
 (Enter /global/apps/Gaussian/09.d01/l702.exe)
 L702 exits ... SP integral derivatives will be done elsewhere.
 Leave Link  702 at Sat Aug 22 22:47:17 2020, MaxMem=  2147483648 cpu:         0.3
 (Enter /global/apps/Gaussian/09.d01/l703.exe)
 Compute integral second derivatives, UseDBF=F ICtDFT=           0.
 Integral derivatives from FoFJK, PRISM(SPDF).
 Calling FoFJK, ICntrl=    100127 FMM=F ISym2X=0 I1Cent= 0 IOpClX= 0 NMat=1 NMatS=1 NMatT=0.
 FoFJK:  IHMeth= 1 ICntrl=  100127 DoSepK=F KAlg= 0 I1Cent=   0 FoldK=F
 IRaf=         0 NMat=   1 IRICut=       1 DoRegI=T DoRafI=F ISym2E= 0.
 FoFCou: FMM=F IPFlag=           0 FMFlag=      100000 FMFlg1=        2800
         NFxFlg=           0 DoJE=F BraDBF=F KetDBF=F FulRan=T
         wScrn=  0.000000 ICntrl=  100127 IOpCl=  0 I1Cent=           0 NGrid=           0
         NMat0=    1 NMatS0=      1 NMatT0=    0 NMatD0=    1 NMtDS0=    0 NMtDT0=    0
 Symmetry not used in FoFCou.
 Leave Link  703 at Sat Aug 22 22:50:39 2020, MaxMem=  2147483648 cpu:      4037.4
 (Enter /global/apps/Gaussian/09.d01/l716.exe)
 Dipole        = 4.68823136D-01 1.31547392D+00 2.14157768D+00
 Polarizability= 3.69703952D+02 1.42305763D+01 2.91223603D+02
                 1.82205365D+01-6.30571363D+00 2.54749762D+02
 Full mass-weighted force constant matrix:
 Low frequencies --- -503.0845  -20.7929  -15.7204   -7.5142   -3.4182    0.0008
 Low frequencies ---    0.0013    0.0013    3.5753
 ******    3 imaginary frequencies (negative Signs) ****** 
 Diagonal vibrational polarizability:
     1141.9169255     222.8145308     506.3278441
 Harmonic frequencies (cm**-1), IR intensities (KM/Mole), Raman scattering
 activities (A**4/AMU), depolarization ratios for plane and unpolarized
 incident light, reduced masses (AMU), force constants (mDyne/A),
 and normal coordinates:
                      1                      2                      3
                      A                      A                      A
 Frequencies --   -503.0845               -20.1899               -10.8509
 Red. masses --      2.2012                 3.4819                 5.4206
 Frc consts  --      0.3282                 0.0008                 0.0004
 IR Inten    --   5045.3701                 0.1654                 0.1603
  Atom  AN      X      Y      Z        X      Y      Z        X      Y      Z
     1   6     0.00   0.00   0.00    -0.03  -0.03  -0.01    -0.01   0.05   0.10
     2   6     0.00  -0.02   0.00    -0.03  -0.01  -0.01    -0.06   0.07   0.17
     3   7     0.00   0.00   0.00    -0.02  -0.05   0.00     0.01   0.02   0.03
     4   6    -0.04  -0.06  -0.01     0.00   0.00  -0.01    -0.05   0.01   0.11
     5   1     0.00  -0.03  -0.01    -0.03   0.00  -0.02    -0.03   0.16   0.22
     6   1     0.02  -0.02   0.01    -0.04  -0.01  -0.02    -0.15   0.03   0.24
     7   8     0.00   0.00   0.00    -0.05  -0.04  -0.01     0.00   0.07   0.12
     8   6     0.00   0.00   0.00    -0.02  -0.07   0.01     0.05   0.01  -0.03
     9   1     0.01  -0.02   0.00     0.00  -0.04   0.00     0.01   0.01   0.01
    10   1    -0.02  -0.06  -0.02    -0.01   0.02  -0.01    -0.08  -0.01   0.14
    11   8    -0.14  -0.09   0.00     0.02   0.01   0.00    -0.01   0.06   0.04
    12   1    -0.05   0.03   0.02     0.00  -0.01   0.00    -0.06  -0.05   0.08
    13   1     0.00   0.00   0.00    -0.03  -0.08   0.01     0.11   0.03  -0.02
    14   1     0.00   0.00   0.00    -0.04  -0.08   0.00     0.02  -0.01  -0.05
    15   1     0.00   0.00   0.00    -0.01  -0.08   0.02     0.07  -0.01  -0.08
    16   6     0.11   0.20  -0.01     0.03  -0.01  -0.02     0.03   0.02  -0.02
    17   6     0.01   0.02   0.01     0.04   0.01  -0.02     0.08   0.07  -0.04
    18   8     0.03   0.01   0.01     0.05  -0.01  -0.03     0.04   0.02  -0.04
    19   8    -0.02   0.01   0.00     0.03  -0.03  -0.01     0.01  -0.03  -0.04
    20   1    -0.01  -0.01  -0.04     0.04   0.02  -0.03     0.09   0.10  -0.02
    21   1     0.00   0.01   0.11     0.04   0.01  -0.04     0.10   0.06  -0.08
    22   1    -0.01  -0.03  -0.05     0.04   0.02  -0.01     0.07   0.08  -0.02
    23   6     0.00   0.00  -0.01     0.03  -0.04  -0.03     0.01  -0.02  -0.03
    24   1    -0.02   0.00   0.02     0.05  -0.03  -0.04     0.02  -0.02  -0.04
    25   1    -0.01   0.01   0.03     0.00  -0.03  -0.01    -0.03  -0.02   0.00
    26   1     0.00   0.02  -0.02     0.03  -0.08  -0.03     0.00  -0.06  -0.05
    27   7     0.06  -0.01   0.01     0.02   0.02   0.01     0.00   0.07   0.02
    28   6     0.03   0.02  -0.03     0.02   0.02   0.01     0.00   0.05  -0.01
    29   6     0.00  -0.02   0.02     0.02   0.03   0.02     0.00   0.09   0.03
    30   7    -0.01   0.01  -0.01     0.02   0.02   0.01     0.00   0.05  -0.02
    31   1    -0.02   0.01  -0.02     0.02   0.01   0.00    -0.01   0.03  -0.03
    32   6    -0.01   0.00   0.00     0.02   0.02   0.01     0.01   0.08   0.00
    33   1    -0.03  -0.01  -0.01     0.02   0.03   0.02     0.00   0.11   0.05
    34   6     0.00   0.00   0.00     0.02   0.03   0.01     0.01   0.09   0.00
    35   6     0.00   0.00   0.00     0.02   0.03   0.00     0.03   0.10  -0.04
    36   1     0.00   0.00  -0.01     0.02   0.03   0.02     0.01   0.11   0.02
    37   1    -0.01   0.00  -0.02     0.01   0.02   0.01     0.00   0.07   0.00
    38   1    -0.01  -0.01  -0.01     0.02   0.03   0.00     0.03   0.10  -0.04
    39   1     0.00   0.00   0.00     0.02   0.03   0.00     0.05   0.12  -0.05
    40   1     0.00   0.00   0.00     0.02   0.02   0.00     0.03   0.07  -0.06
    41   6     0.00   0.00   0.00    -0.10   0.08   0.23     0.05  -0.09  -0.09
    42   6     0.01   0.00   0.00    -0.06   0.05   0.05     0.07  -0.08  -0.09
    43   1     0.01   0.00   0.00    -0.10   0.08   0.28     0.05  -0.08  -0.12
    44   1     0.00   0.00   0.00    -0.07   0.01   0.29     0.06  -0.08  -0.07
    45   1     0.00   0.00   0.00    -0.15   0.20   0.24     0.02  -0.10  -0.08
    46   7     0.00   0.01   0.00     0.00   0.00  -0.09     0.06  -0.06  -0.08
    47   8     0.00   0.00   0.00    -0.07   0.06   0.04     0.08  -0.09  -0.08
    48   6     0.00   0.01   0.00     0.02  -0.04  -0.28     0.08  -0.04  -0.07
    49   1     0.05   0.01  -0.07     0.01  -0.01  -0.07     0.05  -0.05  -0.07
    50   1     0.01   0.00  -0.01     0.08   0.07  -0.43     0.09  -0.05  -0.05
    51   1     0.00   0.00   0.00    -0.02  -0.23  -0.35     0.09  -0.03  -0.06
    52   1     0.00   0.02   0.00     0.02   0.02  -0.20     0.08  -0.03  -0.07
    53   6     0.00  -0.01   0.00     0.01   0.00   0.00    -0.01  -0.02  -0.06
    54   6    -0.01   0.00   0.00     0.02  -0.01  -0.01     0.00  -0.05  -0.09
    55   8    -0.03  -0.01   0.01     0.02   0.01  -0.01     0.01   0.00  -0.08
    56   8     0.00   0.00   0.00     0.01   0.00   0.01    -0.03  -0.03  -0.02
    57   6     0.00   0.00   0.00     0.01  -0.02   0.00    -0.02  -0.09  -0.06
    58   1    -0.01   0.01   0.00     0.02   0.00  -0.01     0.01  -0.02  -0.10
    59   1    -0.01   0.00   0.00     0.02  -0.01  -0.01     0.01  -0.07  -0.12
    60   1    -0.01   0.01   0.00     0.01  -0.02   0.00    -0.02  -0.11  -0.08
    61   1     0.00   0.00   0.00     0.01  -0.02   0.00    -0.04  -0.12  -0.05
    62   1     0.00   0.00   0.00     0.01  -0.01   0.01    -0.04  -0.07  -0.02
    63   7     0.00   0.00   0.00     0.00   0.00   0.02    -0.06  -0.04   0.05
    64   6     0.00   0.00   0.00     0.00   0.00   0.03    -0.06  -0.02   0.07
    65   6     0.00   0.00   0.00     0.00  -0.01   0.02    -0.08  -0.07   0.07
    66   1     0.00   0.00  -0.01     0.00   0.00   0.02    -0.05  -0.03   0.02
    67   1     0.00  -0.03   0.00     0.00   0.01   0.02    -0.05   0.01   0.07
    68   1     0.00   0.00   0.00     0.00   0.00   0.02    -0.06  -0.04   0.06
    69   1     0.00   0.00  -0.01     0.00   0.00   0.03    -0.07  -0.03   0.11
    70   6     0.00   0.00   0.00     0.00  -0.01   0.02    -0.08  -0.09   0.04
    71   8     0.00   0.00   0.00    -0.01  -0.01   0.03    -0.10  -0.09   0.10
    72   1     0.00   0.00  -0.01     0.00  -0.01   0.01    -0.07  -0.09   0.00
    73   1     0.00   0.00   0.00     0.00  -0.01   0.02    -0.07  -0.06   0.05
    74   1     0.00   0.00   0.00    -0.01  -0.02   0.02    -0.09  -0.12   0.05
    75   8     0.00   0.00   0.00     0.01   0.01   0.02    -0.03   0.01   0.04
    76   1     0.01  -0.01  -0.02     0.00   0.01   0.02    -0.04   0.00   0.06
    77   1     0.01  -0.01  -0.01     0.01   0.00   0.01    -0.03   0.00   0.01
    78   1     0.06   0.04  -0.02     0.02   0.01   0.00     0.00   0.03  -0.05
    79   1     0.83  -0.29   0.29     0.01   0.02   0.01    -0.01   0.07   0.03
                      4                      5                      6
                      A                      A                      A
 Frequencies --      6.1567                 9.9679                15.7705
 Red. masses --      5.9145                 4.1790                 5.3432
 Frc consts  --      0.0001                 0.0002                 0.0008
 IR Inten    --      0.3061                 0.0423                 1.4240
  Atom  AN      X      Y      Z        X      Y      Z        X      Y      Z
     1   6     0.03   0.03   0.09    -0.07   0.04   0.02    -0.05  -0.01  -0.01
     2   6     0.02  -0.01   0.11    -0.04   0.03  -0.01     0.01  -0.01  -0.09
     3   7     0.01   0.05   0.06    -0.06   0.03   0.03    -0.06   0.02   0.08
     4   6     0.00  -0.06   0.06    -0.01   0.02  -0.03     0.03   0.05  -0.03
     5   1     0.03   0.02   0.12    -0.06   0.04  -0.04    -0.03  -0.10  -0.16
     6   1     0.01  -0.04   0.16    -0.03   0.03   0.00     0.09   0.03  -0.16
     7   8     0.06   0.05   0.11    -0.10   0.05   0.04    -0.08  -0.04  -0.04
     8   6     0.02   0.09   0.05    -0.08   0.03   0.07    -0.12   0.02   0.16
     9   1    -0.01   0.03   0.04    -0.04   0.02   0.02    -0.05   0.04   0.10
    10   1     0.01  -0.11   0.07     0.00   0.02  -0.04     0.06   0.08  -0.08
    11   8    -0.03  -0.04   0.00    -0.02   0.03  -0.05    -0.01   0.00   0.03
    12   1     0.00  -0.07   0.05     0.00   0.02   0.00     0.05   0.10   0.02
    13   1     0.04   0.09   0.05    -0.11   0.04   0.06    -0.18   0.00   0.14
    14   1     0.04   0.10   0.05    -0.07   0.03   0.09    -0.08   0.04   0.17
    15   1     0.00   0.10   0.03    -0.07   0.03   0.08    -0.12   0.04   0.21
    16   6    -0.05  -0.03  -0.03    -0.01   0.03  -0.03    -0.04   0.03   0.11
    17   6    -0.07   0.01  -0.04    -0.03   0.03  -0.03    -0.11  -0.01   0.12
    18   8    -0.06  -0.06  -0.06     0.01   0.03  -0.04    -0.02   0.04   0.11
    19   8    -0.04  -0.02  -0.01     0.00   0.02  -0.01    -0.01   0.06   0.15
    20   1    -0.08   0.00  -0.06    -0.04   0.04  -0.05    -0.12  -0.03   0.08
    21   1    -0.09   0.03  -0.06    -0.03   0.02  -0.02    -0.13   0.00   0.17
    22   1    -0.06   0.04  -0.02    -0.05   0.03  -0.02    -0.12  -0.02   0.11
    23   6    -0.03  -0.10  -0.06     0.03   0.02  -0.04     0.02   0.07   0.11
    24   1    -0.03  -0.12  -0.09     0.05   0.02  -0.05     0.02   0.07   0.11
    25   1    -0.01  -0.11  -0.04     0.01   0.02  -0.04     0.05   0.07   0.07
    26   1    -0.02  -0.09  -0.04     0.03   0.00  -0.02     0.03   0.10   0.14
    27   7    -0.01  -0.06  -0.05    -0.01   0.02  -0.08     0.00  -0.01   0.00
    28   6    -0.03  -0.06  -0.07     0.00   0.01  -0.08    -0.01  -0.02  -0.02
    29   6     0.00  -0.03  -0.04    -0.02   0.03  -0.07     0.00   0.00   0.00
    30   7    -0.02  -0.03  -0.07    -0.01   0.01  -0.08     0.00  -0.02  -0.02
    31   1    -0.05  -0.09  -0.08     0.01   0.01  -0.09    -0.01  -0.03  -0.02
    32   6     0.00  -0.01  -0.05    -0.01   0.02  -0.07     0.00  -0.01  -0.01
    33   1     0.02  -0.02  -0.01    -0.02   0.04  -0.07     0.01   0.00   0.01
    34   6     0.01   0.04  -0.04    -0.02   0.02  -0.06     0.01   0.00  -0.02
    35   6    -0.02   0.07  -0.06    -0.04   0.02  -0.04     0.01   0.01  -0.03
    36   1     0.03   0.04  -0.03    -0.03   0.02  -0.06     0.02   0.00  -0.01
    37   1     0.03   0.05  -0.03    -0.01   0.02  -0.05     0.01   0.00  -0.02
    38   1    -0.01   0.11  -0.06    -0.04   0.03  -0.04     0.02   0.01  -0.03
    39   1    -0.04   0.07  -0.07    -0.05   0.02  -0.05     0.01   0.01  -0.03
    40   1    -0.04   0.07  -0.07    -0.03   0.03  -0.04     0.00   0.01  -0.03
    41   6    -0.05   0.06  -0.02     0.01  -0.04   0.06     0.02   0.02  -0.03
    42   6    -0.09   0.05  -0.01     0.03  -0.04   0.05     0.05   0.01  -0.13
    43   1    -0.02   0.04  -0.05     0.01  -0.04   0.03    -0.03   0.04   0.13
    44   1    -0.03   0.10   0.00     0.03  -0.05   0.09    -0.04  -0.08  -0.10
    45   1    -0.07   0.05  -0.01    -0.03  -0.06   0.07     0.13   0.13  -0.06
    46   7    -0.09   0.02  -0.01     0.04  -0.02   0.03     0.01   0.01  -0.02
    47   8    -0.12   0.06   0.01     0.04  -0.05   0.07     0.11   0.00  -0.29
    48   6    -0.12   0.00   0.01     0.06   0.00   0.03     0.04   0.00  -0.12
    49   1    -0.06   0.01  -0.01     0.03  -0.01   0.02    -0.02   0.02   0.08
    50   1    -0.17  -0.01   0.05     0.04  -0.02   0.05     0.12   0.07  -0.23
    51   1    -0.10   0.04   0.03     0.11   0.01   0.04    -0.01  -0.12  -0.17
    52   1    -0.12  -0.04  -0.03     0.06   0.00  -0.02     0.04   0.06  -0.03
    53   6    -0.02   0.04  -0.06     0.02  -0.03   0.02     0.00  -0.01  -0.03
    54   6    -0.03   0.09  -0.04     0.03  -0.05   0.11    -0.01   0.01  -0.03
    55   8    -0.05   0.02  -0.09     0.02  -0.02  -0.05    -0.01  -0.01  -0.04
    56   8     0.03   0.03  -0.03     0.02  -0.03   0.01     0.01  -0.01  -0.01
    57   6     0.02   0.11   0.01     0.08  -0.12   0.31     0.00   0.01  -0.02
    58   1    -0.06   0.14  -0.05    -0.07   0.06   0.12    -0.01   0.02  -0.03
[...]
 06077,0.00002497,0.00001443,0.00076295,0.00055479,0.00021150,-0.000008
 38,0.00027735,-0.00069724,0.00016420,-0.00156148,-0.00041626,0.0002435
 0,0.00018559,0.00033232,0.00982903,0.17555610,-0.09670119,-0.00848955,
 -0.02131402,0.00761902,-0.00190489,-0.14962499,0.09576738,-0.00065158,
 0.00029839,-0.00069896,0.00018348,0.00008651,0.00012803,0.00038608,-0.
 00020510,0.00029566,-0.00042642,0.00116701,0.00028619,0.00000452,0.000
 09736,-0.00010111,0.00004229,-0.00014563,0.00000714,0.00040245,-0.0004
 4744,0.00059325,-0.00029965,0.00003759,-0.00018982,-0.00022901,0.00027
 904,-0.00022068,-0.00010318,0.00016851,0.00022570,0.00561537,-0.000697
 59,0.00129021,0.00021296,-0.00013750,-0.00004934,0.00002514,-0.0000110
 6,0.00007301,0.00007086,-0.00006012,0.00002572,0.00002765,0.00002920,0
 .00000448,-0.00287147,-0.00158935,-0.00028593,0.00008058,0.00019437,0.
 00007046,0.00088500,0.00049011,0.00019055,0.00191133,0.00005223,-0.000
 16220,-0.00001585,-0.00011045,-0.00012126,0.00008163,0.00011075,0.0000
 9834,-0.00001018,-0.00002728,-0.00000719,-0.00022077,-0.00041614,-0.00
 001178,-0.00009909,-0.00011971,0.00005631,-0.00015483,0.00032152,0.000
 17235,0.00020544,0.00010327,0.00003745,0.01313407,0.00519758,-0.004515
 56,-0.02166302,-0.00201440,-0.00225750,0.00562190,0.00394552,-0.004047
 02,-0.16733439,-0.05173831,0.02889874,0.00114159,0.00024442,0.00049053
 ,0.01582463,-0.00523888,0.01098725,0.00191431,0.00008411,-0.00014617,0
 .00146521,-0.00022623,0.00129648,0.00032538,0.00199927,-0.00034207,-0.
 00106352,0.00016196,-0.00059536,-0.00024250,0.00047297,-0.00120174,-0.
 00070597,-0.00045997,-0.00026977,-0.00021282,-0.00036288,0.00068675,-0
 .00046571,-0.00055997,-0.00252625,-0.00002936,-0.00005812,-0.00001700,
 -0.00072886,-0.00022903,-0.00024279,-0.00005127,0.00004744,0.00001154,
 0.00004153,0.00000511,-0.00001609,0.00000223,-0.00000175,0.00002210,0.
 00058655,0.00029784,0.00009479,0.00039493,0.00036735,0.00010500,-0.000
 05096,-0.00006422,0.00008307,-0.00045375,-0.00049788,0.00001982,0.0000
 3247,0.00002880,0.00002236,0.00000707,-0.00000895,-0.00003081,0.000014
 06,-0.00012134,-0.00003230,-0.03155041,0.04223200,0.01249773,0.0038919
 0,-0.00334905,0.00040510,0.03726023,0.00351462,-0.01495217,-0.00290973
 ,-0.02475843,-0.00476278,0.00150267,0.00118010,0.00073867,0.00096362,-
 0.00012899,0.00002551,-0.00033234,-0.00057878,-0.00009043,0.00119786,-
 0.00044908,-0.00044968,-0.00005903,-0.00010648,-0.00024468,-0.00009286
 ,-0.00019495,-0.00004371,-0.00231779,-0.00080582,0.00017221,0.00207891
 ,-0.00027859,-0.00102470,0.00158297,-0.00005918,-0.00008248,0.00351070
 ,0.00282906,0.00114066,-0.00016867,-0.00047486,0.00027251,-0.00052711,
 0.00006151,-0.00034539,-0.00036892,0.00000535,0.00006131,-0.00035824,0
 .00039514,-0.00028825,-0.00120055,-0.00041376,-0.00021314,-0.00017239,
 0.00000340,0.00082381,-0.00010086,0.00024198,0.00006843,-0.00013843,-0
 .00029202,-0.00006645,-0.00136100,-0.00243051,0.00202027,0.00060987,0.
 00019008,-0.00031214,0.00004152,0.00428478,-0.00225071,0.14460879,-0.0
 0021020,0.00020391,-0.00029318,0.00009057,0.00001977,0.00000612,0.0001
 2015,-0.00015606,0.00012357,-0.00016204,0.00071835,0.00025547,-0.00000
 143,0.00006168,-0.00001860,0.00003825,-0.00009140,0.00000051,0.0001425
 0,-0.00024281,0.00027142,-0.00012363,0.00001740,-0.00007607,-0.0001145
 3,0.00016259,-0.00011334,-0.00006590,0.00004119,0.00006587,0.00301891,
 -0.00077228,0.00059929,0.00011545,-0.00009340,-0.00003395,0.00000968,-
 0.00000231,0.00002879,0.00003066,-0.00002647,0.00000959,0.00000611,0.0
 0001009,0.00000150,-0.00138347,-0.00069850,-0.00009819,0.00001257,0.00
 009449,0.00002519,0.00046959,0.00020940,0.00001909,0.00091642,-0.00003
 194,-0.00010879,-0.00000239,-0.00004968,-0.00006464,0.00003846,0.00004
 758,0.00004373,0.00000213,-0.00001244,-0.00000142,-0.00012627,-0.00012
 470,0.00010610,-0.00003714,-0.00003932,0.00002184,-0.00006366,0.000093
 24,0.00006686,0.00008365,0.00002940,-0.00000114,0.01045517,0.00523547,
 0.00204948,0.00169626,0.00619685,-0.01271155,0.00155493,0.00063109,0.0
 0297511,-0.05302840,-0.07488085,0.03859530,0.00073926,-0.00122798,-0.0
 0056109,-0.00840785,-0.00731318,0.00272662,-0.00009769,0.00101903,0.00
 047142,0.00068186,-0.00071427,-0.00041202,0.00041013,0.00099489,0.0000
 3855,-0.00038483,0.00002884,-0.00061269,0.00056217,-0.00059406,-0.0001
 2612,-0.00032589,-0.00032898,-0.00015577,-0.00005140,-0.00014009,-0.00
 003292,-0.00027363,0.00020228,-0.00057320,-0.00000795,-0.00002950,-0.0
 0000494,-0.00033843,-0.00008693,-0.00011208,-0.00002544,0.00002124,0.0
 0000403,0.00001987,0.00000197,-0.00000726,0.00000121,0.,0.00001051,0.0
 0027352,0.00012252,0.00003856,0.00018098,0.00015153,0.00004640,-0.0000
 2987,-0.00002193,0.00003769,-0.00020117,-0.00021665,0.00001403,0.00001
 118,0.00001066,0.00000832,0.00000515,-0.00000444,-0.00001392,0.0000076
 3,-0.00005099,-0.00001127,0.00165725,0.03066939,0.00386835,0.00241887,
 -0.00320938,-0.00084689,0.01848349,-0.02631094,-0.00605220,-0.00380393
 ,-0.01424548,-0.00132077,0.00118327,0.00088558,0.00035570,0.00028468,-
 0.00014683,-0.00001332,-0.00025577,-0.00028027,-0.00003422,0.00061188,
 -0.00038604,-0.00028104,-0.00000613,-0.00002764,-0.00014923,0.00000676
 ,-0.00013645,0.00003654,-0.00115728,0.00001589,0.00053813,0.00059534,-
 0.00003964,-0.00048254,0.00105742,-0.00044932,-0.00060202,0.00153798,0
 .00035379,-0.00012411,-0.00012413,-0.00024711,0.00021923,-0.00019793,-
 0.00001265,-0.00014508,-0.00011644,0.00003938,0.00005219,-0.00020837,0
 .00015828,-0.00008518,-0.00045571,0.00018722,0.00025703,-0.00004202,-0
 .00000482,0.00025974,-0.00003770,0.00007916,0.00001789,-0.00006866,-0.
 00009134,0.00000448,-0.00072761,-0.00075376,0.00076201,0.00028270,-0.0
 0007160,-0.00012173,0.00022063,0.00152007,-0.00081988,0.02732055,0.082
 10810,0.00020468,-0.00012641,0.00024450,-0.00009601,-0.00002696,0.0000
 0191,-0.00010867,0.00007977,-0.00010967,0.00016774,-0.00051826,-0.0001
 4574,0.00000839,-0.00002434,0.00001700,-0.00001001,0.00005321,-0.00001
 005,-0.00012046,0.00016269,-0.00022870,0.00009230,-0.00000858,0.000067
 79,0.00008177,-0.00009636,0.00008719,0.00005624,-0.00007979,-0.0000572
 4,-0.00252004,0.00034651,-0.00081452,-0.00007618,0.00006033,0.00001527
 ,-0.00000911,0.00000410,-0.00002660,-0.00002203,0.00001721,-0.00000937
 ,-0.00000827,-0.00000814,-0.00000104,0.00103547,0.00075285,0.00008626,
 -0.00005554,-0.00008553,-0.00002324,-0.00023869,-0.00022346,-0.0000528
 5,-0.00067095,-0.00006104,0.00005001,0.00001189,0.00003016,0.00004028,
 -0.00002335,-0.00004163,-0.00004365,0.00000060,0.00001040,0.00000781,0
 .00007577,0.00017459,0.00000381,0.00002089,0.00000696,-0.00000457,0.00
 004480,-0.00009204,-0.00007026,-0.00005518,-0.00003837,-0.00000328,-0.
 01050375,0.00094640,0.00117207,-0.00620650,-0.01325725,0.01043670,-0.0
 0120440,0.00370169,-0.00228276,0.02941897,0.03857002,-0.07205277,-0.00
 017357,-0.00067227,-0.00096798,0.01595698,0.00379498,-0.00414088,0.000
 32180,0.00055391,0.00085644,0.00005325,-0.00026452,-0.00030316,0.00038
 139,-0.00014420,-0.00051928,0.00017203,-0.00032556,0.00029243,-0.00008
 259,0.00025745,0.00025316,0.00005374,-0.00029812,0.00057019,-0.0000006
 3,0.00005645,-0.00004780,-0.00190401,-0.00027732,-0.00080297,0.0000094
 0,0.00001945,0.00000577,0.00022883,0.00007066,0.00007992,0.00001689,-0
 .00001538,-0.00000185,-0.00001187,-0.00000166,0.00000462,-0.00000242,-
 0.00000014,-0.00000810,-0.00018423,-0.00010063,-0.00003692,-0.00012292
 ,-0.00011636,-0.00003755,0.00001025,0.00002032,-0.00002278,0.00014826,
 0.00016974,-0.00000295,-0.00001146,-0.00001080,-0.00000712,-0.00000069
 ,0.00000292,0.00000734,-0.00000339,0.00004019,0.00001190,0.00909748,-0
 .01089696,-0.00139752,-0.00100191,0.00128803,0.00263992,-0.01641736,-0
 .00174253,-0.01618102,0.00000860,0.00692027,-0.00201790,-0.00072457,-0
 .00056522,-0.00012751,0.00020072,0.00012034,-0.00004759,-0.00004269,-0
 .00007493,-0.00003440,-0.00044088,0.00019111,0.00015046,0.00003761,0.0
 0002225,0.00004532,0.00004826,0.00006291,0.00001048,0.00043995,0.00048
 277,-0.00008758,-0.00066471,0.00004392,0.00040787,-0.00023588,-0.00020
 255,-0.00021530,-0.00068392,-0.00135206,-0.00031242,0.00001806,0.00014
 321,-0.00006574,0.00007744,-0.00004146,0.00005691,0.00010952,0.0000381
 4,-0.00003554,0.00007823,-0.00014475,0.00005467,0.00034681,0.00028854,
 0.00019010,0.00007452,-0.00000272,-0.00021306,0.00000856,-0.00004345,0
 .00000704,0.00002897,0.00008675,0.00002126,0.00051020,0.00065961,-0.00
 094841,-0.00016332,-0.00005043,0.00022938,-0.00007554,-0.00129759,0.00
 093606,-0.01824498,-0.02649308,0.08315412,-0.00206911,0.00242467,-0.00
 250501,0.00165163,-0.00251637,-0.00288907,0.00112405,-0.00142672,0.001
 10115,-0.00214956,0.02556536,0.01476219,-0.00018678,0.00038072,0.00064
 942,0.00036558,-0.00204880,0.00067309,0.00126358,-0.00206494,0.0026284
 5,-0.00123729,-0.00006056,-0.00084453,-0.00173888,0.00158811,-0.001225
 47,-0.00128179,-0.00506710,-0.00498054,0.02851971,-0.00509630,0.008798
 41,0.00245253,-0.00262322,-0.00237058,0.00013754,-0.00005830,0.0003192
 4,0.00033240,-0.00022836,0.00016883,0.00008343,0.00010892,0.00000710,-
 0.02548190,-0.03663277,0.00579027,0.00250150,0.00267668,-0.00077952,-0
 .00268257,0.00969032,-0.00727689,0.01514869,0.00432093,-0.00432950,-0.
 00012321,0.00001058,0.00022699,0.00001234,0.00119331,0.00145297,-0.000
 35140,-0.00005143,-0.00069847,-0.00048790,-0.00016108,0.00521589,0.000
 02651,0.00122296,-0.00086522,0.00065297,-0.00138762,0.00037404,-0.0000
 2471,-0.00047289,-0.00051007,-0.06728610,-0.00942013,0.00242422,-0.017
 96375,-0.01112597,0.01028542,0.00867684,0.01289230,-0.01350176,0.02078
 374,0.00127023,0.00299711,0.00176310,0.00092508,-0.00074925,0.00739304
 ,0.00002435,0.00207347,0.00049410,-0.00095707,0.00147546,0.00083659,0.
 00132034,-0.00201864,0.00056030,-0.00130803,0.00014920,0.00004554,-0.0
 0016243,0.00049738,0.00058450,0.00011740,0.00100236,0.00067089,0.00028
 527,0.00056305,-0.00023218,0.00022570,0.00006866,-0.00021909,-0.000000
 24,-0.00004111,-0.00019133,-0.00025125,-0.00012886,-0.00228388,-0.0008
 1139,-0.00069445,-0.00029316,0.00024243,0.00005840,0.00018474,0.000063
 32,-0.00003867,0.00001437,0.00002325,0.00005587,0.00210061,0.00195950,
 -0.00005873,0.00129056,0.00143421,0.00030205,0.00036672,-0.00057590,0.
 00054817,-0.00241447,-0.00329178,0.00046142,0.00008506,0.00019535,0.00
 002492,0.00006836,0.00015146,-0.00024469,-0.00005032,-0.00049676,-0.00
 000424,-0.00376051,0.00226731,0.00092245,0.00052066,-0.00017881,0.0002
 1349,0.00659877,0.00090487,-0.00203832,0.00161946,-0.00136333,-0.00105
 987,0.00011306,0.00015754,0.00011576,0.00008843,-0.00006326,0.00000238
 ,0.00004233,0.00002577,-0.00009437,0.00029615,-0.00001048,-0.00006097,
 -0.00004237,-0.00005236,-0.00005635,-0.00011558,0.00000973,-0.00001919
 ,0.00068482,-0.00124852,-0.00196212,-0.00038036,-0.00020506,0.00118187
 ,-0.00067544,0.00209908,0.00211656,-0.00016249,0.00062168,0.00083840,-
 0.00001545,0.00091497,-0.00037810,0.00022410,0.00028076,0.00023328,0.0
 0029604,-0.00035671,-0.00023689,0.00016209,-0.00006065,-0.00008567,-0.
 00032081,-0.00140008,-0.00126639,-0.00005147,0.00000383,0.00018043,-0.
 00002552,0.00010851,0.00009553,0.00007001,-0.00008383,-0.00013817,0.00
 102474,-0.00122580,-0.00071828,-0.00018250,0.00050940,0.00035039,-0.00
 057144,0.00055106,0.00024055,-0.00814726,-0.00469037,0.00346536,0.0312
 6835,0.00039260,-0.00037349,0.00047609,0.00034684,-0.00113108,-0.00106
 467,-0.00026878,0.00019367,-0.00027255,0.01347319,-0.00870168,0.002259
 23,-0.00011359,-0.00013557,0.00009080,-0.00004240,-0.00014662,0.000232
 10,-0.00025470,0.00041250,-0.00043953,0.00024843,0.00000490,0.00015419
 ,0.00035350,-0.00041605,0.00036909,0.00089327,-0.00035713,-0.00031396,
 -0.01439854,-0.03831615,-0.00812475,-0.00077326,-0.00067849,0.00014521
 ,-0.00003297,0.00001756,-0.00006575,-0.00005993,0.00004380,-0.00003263
 ,-0.00002158,-0.00002215,0.00000090,0.00075990,0.01730006,-0.00664478,
 -0.00110029,-0.00150638,0.00045183,0.00345003,-0.00301926,0.00215719,-
 0.00626677,-0.00303641,0.00247644,0.00014500,-0.00032533,-0.00071479,0
 .00025834,-0.00047435,-0.00059397,0.00017796,-0.00001293,0.00036338,-0
 .00025627,-0.00016015,0.00100279,-0.00002730,-0.00015413,0.00010004,-0
 .00040572,0.00015787,0.00027495,0.00017697,0.00013261,-0.00031061,-0.0
 0922934,-0.04557415,0.01134100,-0.00990162,0.00393567,-0.00955024,0.00
 867056,-0.00169759,-0.00093710,-0.00681149,-0.00019899,0.00284016,-0.0
 0009959,-0.00136875,-0.00049847,-0.00013590,-0.00050203,0.00299102,-0.
 00014400,-0.00050329,-0.00079089,-0.00004615,0.00096417,0.00058485,0.0
 0018671,-0.00004310,0.00017458,-0.00001199,0.00000613,-0.00009127,-0.0
 0014895,0.00001923,-0.00023542,-0.00001529,0.00004224,-0.00001114,0.00
 002629,-0.00003540,-0.00002098,0.00001911,-0.00000874,0.00001580,0.000
 05347,0.00005703,0.00003467,0.00036557,0.00014248,0.00010958,0.0000767
 6,-0.00006327,-0.00000486,-0.00003885,-0.00002106,0.00000377,-0.000008
 88,-0.00001216,-0.00000988,-0.00043162,-0.00064156,0.00003976,-0.00022
 257,-0.00029812,-0.00005544,-0.00025618,0.00019821,-0.00011919,0.00062
 124,0.00112770,-0.00013629,0.00001883,-0.00005654,0.00000161,0.0000102
 0,-0.00005672,0.00005409,0.00004031,-0.00000391,-0.00001318,0.00065460
 ,-0.00031424,-0.00014538,-0.00010154,0.00003581,-0.00003179,-0.0012647
 0,-0.00042307,0.00034183,-0.00032172,0.00016087,0.00014456,-0.00002315
 ,-0.00002772,-0.00002009,-0.00002305,0.00000578,-0.00000531,-0.0000079
 6,-0.00000719,0.00001589,-0.00005127,0.00000154,0.00000984,0.00000915,
 0.00001087,0.00000394,0.00002089,-0.00000177,0.00000737,-0.00030086,0.
 00026195,0.00040142,0.00014204,-0.00001150,-0.00026727,0.00016989,-0.0
 0042810,-0.00043331,0.00003702,-0.00003597,-0.00008190,0.00018233,-0.0
 0014725,0.00024463,-0.00003051,-0.00001638,-0.00014973,-0.00003469,0.0
 0002867,0.00000490,-0.00005108,0.00002167,0.00002081,0.00000401,0.0002
 5607,0.00024590,0.00000504,-0.00000270,-0.00002266,-0.00000483,-0.0000
 1295,-0.00000618,-0.00002277,0.00001329,0.00002565,-0.00015054,0.00014
 910,0.00004974,0.00004329,-0.00006915,-0.00001726,0.00008740,-0.000071
 88,-0.00000719,0.00132300,0.00202207,-0.00042796,0.02046944,0.08389908
 ,-0.00033836,0.00062448,-0.00070305,0.00011910,-0.00062661,-0.00102768
 ,0.00024424,-0.00042273,0.00035439,0.01137788,0.00418858,0.00550928,-0
 .00003835,0.00049313,0.00010576,0.00016409,-0.00039633,0.00014948,0.00
 026861,-0.00050922,0.00059202,-0.00035226,0.00001499,-0.00018230,-0.00
 041905,0.00044239,-0.00049817,-0.00023384,-0.00242014,-0.00106388,-0.0
 0105996,-0.00189482,-0.02520926,0.00222760,-0.00289306,-0.00205189,0.0
 0003738,-0.00001111,0.00008040,0.00008231,-0.00006773,0.00003055,0.000
 01506,0.00003064,0.00000148,-0.00495586,-0.01367793,0.00388623,-0.0000
 7450,0.00119766,-0.00033359,-0.00184346,0.00339045,-0.00374258,0.00623
 360,0.00221893,-0.00246062,-0.00002580,-0.00057864,-0.00025117,0.00023
 776,0.00021077,0.00031416,-0.00008376,-0.00010252,-0.00017227,0.000809
 42,0.00147350,0.00184127,-0.00009556,0.00006507,-0.00030084,0.00054006
 ,-0.00053324,-0.00126928,-0.00020989,-0.00057097,-0.00018323,-0.002239
 26,0.01188490,-0.05009092,0.00876148,-0.00832619,0.01039623,-0.0095905
 8,-0.00160420,-0.00422392,0.00990150,0.00428816,0.00077408,0.00087516,
 -0.00036732,-0.00115688,0.00071528,0.00329835,-0.00179380,0.00050239,-
 0.00079314,0.00012734,-0.00027783,0.00070272,0.00029761,0.00021528,-0.
 00032100,0.00011466,0.00005880,-0.00008666,0.00014928,-0.00005937,0.00
 010285,0.00005611,0.00019197,0.00005921,0.00017812,-0.00005657,0.00003
 301,0.00000595,-0.00009679,-0.00003200,-0.00002010,-0.00005875,-0.0000
 7327,-0.00004065,-0.00060458,-0.00022581,-0.00016176,-0.00009368,0.000
 07643,0.00001678,0.00005894,0.00002278,-0.00001121,-0.00000149,0.00001
 087,0.00001108,0.00061734,0.00067594,-0.00011422,0.00034843,0.00040818
 ,0.00006538,0.00018258,-0.00022296,0.00018114,-0.00073349,-0.00113443,
 0.00022360,-0.00000495,0.00005689,-0.00000106,0.00002694,0.00006989,-0
 .00009050,-0.00002904,-0.00007521,0.00003962,-0.00122697,0.00110173,0.
 00036708,0.00017803,-0.00009189,0.00007388,0.00249717,0.00023103,-0.00
 090478,0.00040663,-0.00067484,-0.00038493,0.00004735,0.00005713,0.0000
 4269,0.00003064,-0.00001942,-0.00000368,0.00000773,0.00000111,-0.00002
 547,0.00008923,-0.00000997,-0.00002225,-0.00000996,-0.00001484,-0.0000
 2411,-0.00003011,0.00000120,-0.00000333,-0.00004735,-0.00024907,-0.000
 52185,0.00009491,-0.00015476,0.00045644,-0.00010654,0.00046643,0.00048
 927,-0.00000915,0.00026817,0.00031937,0.00009892,0.00023315,-0.0000033
 1,0.00003715,0.00011745,-0.00013400,0.00006281,-0.00008015,-0.00010054
 ,0.00001781,-0.00000573,-0.00002168,-0.00013777,-0.00033276,-0.0003264
 6,-0.00001627,0.00000067,0.00006655,-0.00001534,0.00003633,0.00003273,
 0.00000930,-0.00002808,-0.00003346,0.00024960,-0.00035948,-0.00021072,
 -0.00003444,0.00013370,0.00012848,-0.00014879,0.00020943,0.00005497,-0
 .00303910,-0.00131688,0.00230367,-0.02024169,0.00240679,0.07003827\\0.
 00000001,0.00000024,-0.00000061,-0.00205172,-0.00453299,-0.00006658,0.
 00000027,0.00000053,-0.00000039,0.00000048,0.00000002,0.00000126,0.000
 00012,0.00000034,-0.00000010,-0.00000012,0.00000026,0.00000016,-0.0000
 0001,-0.00000058,0.00000047,-0.00054469,0.00213628,-0.00056793,0.00000
 029,-0.00000081,0.00000050,-0.00000030,-0.00000019,-0.00000033,0.00000
 215,-0.00000346,0.,0.00000046,0.00000006,-0.00000006,0.00000003,0.,-0.
 00000016,-0.00000035,0.00000045,0.00000005,-0.00000018,-0.00000018,0.0
 0000003,0.00000103,0.00000039,0.00000027,0.,-0.00000018,-0.00000004,-0
 .00000020,-0.00000039,-0.00000003,-0.00000017,0.00000002,0.00000022,0.
 00000005,0.00000003,-0.00000001,-0.00000008,-0.00000007,0.00000007,-0.
 00000010,0.00000044,-0.00000017,0.00000031,0.00000056,-0.00000055,0.,-
 0.00000015,0.00000002,-0.00000035,-0.00000023,0.00000029,-0.00000006,0
 .00000023,-0.00000003,0.00000113,-0.00000018,-0.00000024,0.00000065,-0
 .00000046,0.00000053,-0.00000027,0.00000004,0.00000001,-0.00000130,-0.
 00000008,-0.00000001,-0.00000008,0.00000021,-0.00000028,0.00000069,0.0
 0000008,-0.00000020,0.00000026,0.00000030,-0.00000022,-0.00000049,0.00
 000048,0.00000020,0.00194989,0.00030049,0.00071104,-0.00000005,-0.0000
 0012,0.00000013,0.00000012,-0.00000010,-0.00000014,0.00000015,0.000000
 01,0.00000008,-0.00000027,0.00000015,0.00000023,0.00000005,-0.00000006
 ,0.00000013,0.00125174,0.00030832,0.00029067,-0.00000009,0.00000111,0.
 00000002,0.00000018,0.00000004,0.00000038,-0.00000004,0.00000033,0.000
 00064,0.00000036,-0.00000001,0.00000027,-0.00000125,-0.00000022,0.0000
 0086,0.00000013,-0.00000100,-0.00000004,0.00058024,0.00192149,-0.00048
 911,0.00000037,0.00000073,-0.00000029,0.00000041,-0.00000033,-0.000000
 40,-0.00000016,0.00000079,-0.00000018,-0.00000020,-0.00000091,-0.00000
 018,0.00000006,0.00000063,0.00000028,-0.00000018,0.00000028,-0.0000006
 3,0.00000038,-0.00000061,-0.00000020,-0.00000021,-0.00000018,-0.000000
 16,-0.00102892,0.00049308,0.00031999,0.00000007,0.00000007,0.00000021,
 -0.00000002,-0.00000030,0.00000025,0.00000014,0.00000001,-0.00000004,0
 .,0.,-0.00000016,0.00000005,0.00000002,-0.00000006,0.00000061,0.000000
 50,0.00000068,-0.00027910,-0.00037904,-0.00022011,-0.00000028,-0.00000
 041,-0.00000053,-0.00000017,-0.00000027,-0.00000026,0.00000011,0.,0.00
 000006,0.00000003,-0.00000008,0.00000021,0.00000018,0.00000025,0.00000
 003,0.00012044,-0.00024622,0.00001977,0.00000032,0.00000008,0.00000006
 ,0.00000002,0.,-0.00000001,0.00000027,-0.00000016,0.00000029,0.0000000
 7,-0.00000005,-0.00000013,-0.00000003,0.00000022,-0.00000018,0.0000000
 4,0.,0.00000004,0.,-0.00000024,0.00000011,0.,0.,-0.00000003,-0.0000029
 1,0.00000069,0.00000030\\\@


 DEMOCRATS BUY MOST OF THE BOOKS THAT HAVE BEEN
 BANNED; REPUBLICANS FORM CENSORSHIP COMMITTEES AND
 READ THEM AS A GROUP.
 Job cpu time:       0 days  9 hours  6 minutes 43.3 seconds.
 File lengths (MBytes):  RWF=   4198 Int=      0 D2E=      0 Chk=     34 Scr=      1
 Normal termination of Gaussian 09 at Sat Aug 22 22:50:43 2020.
