 Entering Gaussian System, Link 0=g09
 Initial command:
 /global/apps/Gaussian/09.d01/l1.exe "/global/work/bentesirinbarge/2594781/Gau-33983.inp" -scrdir="/global/work/bentesirinbarge/2594781/"
 Entering Link 1 = /global/apps/Gaussian/09.d01/l1.exe PID=     33984.
  
 Copyright (c) 1988,1990,1992,1993,1995,1998,2003,2009,2013,
            Gaussian, Inc.  All Rights Reserved.
  
 This is part of the Gaussian(R) 09 program.  It is based on
 the Gaussian(R) 03 system (copyright 2003, Gaussian, Inc.),
 the Gaussian(R) 98 system (copyright 1998, Gaussian, Inc.),
 the Gaussian(R) 94 system (copyright 1995, Gaussian, Inc.),
 the Gaussian 92(TM) system (copyright 1992, Gaussian, Inc.),
 the Gaussian 90(TM) system (copyright 1990, Gaussian, Inc.),
 the Gaussian 88(TM) system (copyright 1988, Gaussian, Inc.),
 the Gaussian 86(TM) system (copyright 1986, Carnegie Mellon
 University), and the Gaussian 82(TM) system (copyright 1983,
 Carnegie Mellon University). Gaussian is a federally registered
 trademark of Gaussian, Inc.
  
 This software contains proprietary and confidential information,
 including trade secrets, belonging to Gaussian, Inc.
  
 This software is provided under written license and may be
 used, copied, transmitted, or stored only in accord with that
 written license.
  
 The following legend is applicable only to US Government
 contracts under FAR:
  
                    RESTRICTED RIGHTS LEGEND
  
 Use, reproduction and disclosure by the US Government is
 subject to restrictions as set forth in subparagraphs (a)
 and (c) of the Commercial Computer Software - Restricted
 Rights clause in FAR 52.227-19.
  
 Gaussian, Inc.
 340 Quinnipiac St., Bldg. 40, Wallingford CT 06492
  
  
 ---------------------------------------------------------------
 Warning -- This program may not be used in any manner that
 competes with the business of Gaussian, Inc. or will provide
 assistance to any competitor of Gaussian, Inc.  The licensee
 of this program is prohibited from giving any competitor of
 Gaussian, Inc. access to this program.  By using this program,
 the user acknowledges that Gaussian, Inc. is engaged in the
 business of creating and licensing software in the field of
 computational chemistry and represents and warrants to the
 licensee that it is not a competitor of Gaussian, Inc. and that
 it will not use this program in any manner prohibited above.
 ---------------------------------------------------------------
  

 Cite this work as:
 Gaussian 09, Revision D.01,
 M. J. Frisch, G. W. Trucks, H. B. Schlegel, G. E. Scuseria, 
 M. A. Robb, J. R. Cheeseman, G. Scalmani, V. Barone, B. Mennucci, 
 G. A. Petersson, H. Nakatsuji, M. Caricato, X. Li, H. P. Hratchian, 
 A. F. Izmaylov, J. Bloino, G. Zheng, J. L. Sonnenberg, M. Hada, 
 M. Ehara, K. Toyota, R. Fukuda, J. Hasegawa, M. Ishida, T. Nakajima, 
 Y. Honda, O. Kitao, H. Nakai, T. Vreven, J. A. Montgomery, Jr., 
 J. E. Peralta, F. Ogliaro, M. Bearpark, J. J. Heyd, E. Brothers, 
 K. N. Kudin, V. N. Staroverov, T. Keith, R. Kobayashi, J. Normand, 
 K. Raghavachari, A. Rendell, J. C. Burant, S. S. Iyengar, J. Tomasi, 
 M. Cossi, N. Rega, J. M. Millam, M. Klene, J. E. Knox, J. B. Cross, 
 V. Bakken, C. Adamo, J. Jaramillo, R. Gomperts, R. E. Stratmann, 
 O. Yazyev, A. J. Austin, R. Cammi, C. Pomelli, J. W. Ochterski, 
 R. L. Martin, K. Morokuma, V. G. Zakrzewski, G. A. Voth, 
 P. Salvador, J. J. Dannenberg, S. Dapprich, A. D. Daniels, 
 O. Farkas, J. B. Foresman, J. V. Ortiz, J. Cioslowski, 
 and D. J. Fox, Gaussian, Inc., Wallingford CT, 2013.
 
 ******************************************
 Gaussian 09:  EM64L-G09RevD.01 24-Apr-2013
                 1-Sep-2020 
 ******************************************
 %LindaWorkers=cib30-2
 %NProcShared=20
 Will use up to   20 processors via shared memory.
 %mem=16GB
 SetLPE:  input flags=""
 SetLPE:    new flags=" -nodelist 'cib30-2.ibnet'"
 Will use up to    1 processors via Linda.
 -----------------------------------------------------------
 #p b3lyp/6-31g(d,p) scrf=(read,smd) empiricaldispersion=gd3
 -----------------------------------------------------------
 1/38=1,40=2/1;
 2/12=2,17=6,18=5,40=1/2;
 3/5=1,6=6,7=101,11=2,16=1,25=1,30=1,70=32203,72=1,74=-5,124=31/1,2,3;
 4//1;
 5/5=2,38=5/2;
 6/7=2,8=2,9=2,10=2,28=1/1;
 99/5=1,9=1/99;
 Leave Link    1 at Tue Sep  1 13:49:13 2020, MaxMem=  2147483648 cpu:         3.3
 (Enter /global/apps/Gaussian/09.d01/l101.exe)
 -------------------
 Title Card Required
 -------------------
 Symbolic Z-matrix:
 Charge = -1 Multiplicity = 1
 C                    -3.80442   3.40411  -1.21644 
 C                    -2.58219   3.37865  -0.29725 
 N                    -4.74114   2.43423  -1.08225 
 C                    -2.37006   2.25559   0.71372 
 H                    -1.70633   3.4398   -0.953 
 H                    -2.62066   4.33929   0.23381 
 O                    -3.93026   4.32625  -2.02553 
 C                    -5.93214   2.49655  -1.91099 
 H                    -4.60109   1.63079  -0.46341 
 H                    -1.61595   2.58541   1.44764 
 O                    -1.91843   1.07093   0.09401 
 H                    -3.29314   2.0496    1.27185 
 H                    -5.67197   2.52341  -2.97474 
 H                    -6.51402   3.4002   -1.69651 
 H                    -6.54716   1.61671  -1.71121 
 C                    -3.08068  -0.31477   0.15516 
 C                    -2.94692  -0.75761  -1.2856 
 O                    -2.36065  -1.19774   0.9671 
 O                    -4.17301   0.15119   0.5914 
 H                    -1.91392  -1.01193  -1.52731 
 H                    -3.58439  -1.63536  -1.4343 
 H                    -3.29004   0.05039  -1.93185 
 C                    -2.47789  -0.94732   2.36323 
 H                    -1.95025  -1.76135   2.86566 
 H                    -2.00975   0.00999   2.62628 
 H                    -3.5233   -0.92404   2.68446 
 N                     0.41962   0.70757   0.81545 
 C                     1.36224   1.4067    0.18526 
 C                     1.04539   0.02529   1.83846 
 N                     2.55689   1.20125   0.75231 
 H                     1.18808   2.04755  -0.6653 
 C                     2.38894   0.32495   1.80803 
 H                     0.49788  -0.62639   2.50064 
 C                     3.53295  -0.15608   2.64928 
 C                     4.36183   0.97625   3.28553 
 H                     3.12323  -0.80625   3.43072 
 H                     4.19683  -0.78163   2.04171 
 H                     5.21036   0.55718   3.83503 
 H                     3.75646   1.56646   3.98246 
 H                     4.74806   1.65253   2.51858 
 C                    -7.46587  -0.87623  -0.1639 
 C                    -6.92693  -2.2566    0.20067 
 H                    -6.7505   -0.07375   0.02883 
 H                    -8.38493  -0.69294   0.40038 
 H                    -7.73265  -0.87779  -1.22529 
 N                    -5.66093  -2.24457   0.68184 
 O                    -7.59677  -3.27881   0.05148 
 C                    -4.94564  -3.45787   1.01443 
 H                    -5.16774  -1.35308   0.7498 
 H                    -5.25156  -4.26117   0.33865 
 H                    -5.1523   -3.79215   2.04073 
 H                    -3.87414  -3.2714    0.91438 
 C                     5.65225   1.3975   -0.12052 
 C                     7.12324   1.82411  -0.12218 
 O                     4.80692   2.30748   0.13992 
 O                     5.37199   0.18656  -0.33787 
 C                     8.07151   0.79897  -0.73702 
 H                     7.39218   2.02162   0.92445 
 H                     7.185     2.7929   -0.63012 
 H                     9.11182   1.13984  -0.68587 
 H                     7.82402   0.61786  -1.78773 
 H                     7.99491  -0.16131  -0.22064 
 N                     3.54967  -1.77362  -1.372 
 C                     2.106    -1.86482  -1.23207 
 C                     4.20883  -2.54206  -2.29457 
 H                     4.02438  -0.94559  -1.00556 
 H                     1.81478  -1.57399  -0.22088 
 H                     1.57649  -1.21902  -1.94588 
 H                     1.7987   -2.89445  -1.42161 
 C                     5.70465  -2.27413  -2.39355 
 O                     3.65251  -3.41942  -2.95243 
 H                     5.92206  -1.20306  -2.39368 
 H                     6.20788  -2.69038  -1.51491 
 H                     6.08447  -2.75076  -3.29775 
 O                     5.75995  -2.22492   0.93396 
 H                     4.9588   -2.5367    0.48866 
 H                     5.85243  -1.33211   0.54349 
 H                     3.50237   1.66083   0.44123 
 H                    -0.7327    0.78092   0.49644 
 
 NAtoms=     79 NQM=       79 NQMF=       0 NMMI=      0 NMMIF=      0
                NMic=       0 NMicF=      0.
                    Isotopes and Nuclear Properties:
 (Nuclear quadrupole moments (NQMom) in fm**2, nuclear magnetic moments (NMagM)
  in nuclear magnetons)

  Atom         1           2           3           4           5           6           7           8           9          10
 IAtWgt=          12          12          14          12           1           1          16          12           1           1
 AtmWgt=  12.0000000  12.0000000  14.0030740  12.0000000   1.0078250   1.0078250  15.9949146  12.0000000   1.0078250   1.0078250
 NucSpn=           0           0           2           0           1           1           0           0           1           1
 AtZEff=   0.0000000   0.0000000   0.0000000   0.0000000   0.0000000   0.0000000   0.0000000   0.0000000   0.0000000   0.0000000
 NQMom=    0.0000000   0.0000000   2.0440000   0.0000000   0.0000000   0.0000000   0.0000000   0.0000000   0.0000000   0.0000000
 NMagM=    0.0000000   0.0000000   0.4037610   0.0000000   2.7928460   2.7928460   0.0000000   0.0000000   2.7928460   2.7928460
 AtZNuc=   6.0000000   6.0000000   7.0000000   6.0000000   1.0000000   1.0000000   8.0000000   6.0000000   1.0000000   1.0000000

  Atom        11          12          13          14          15          16          17          18          19          20
 IAtWgt=          16           1           1           1           1          12          12          16          16           1
 AtmWgt=  15.9949146   1.0078250   1.0078250   1.0078250   1.0078250  12.0000000  12.0000000  15.9949146  15.9949146   1.0078250
 NucSpn=           0           1           1           1           1           0           0           0           0           1
 AtZEff=   0.0000000   0.0000000   0.0000000   0.0000000   0.0000000   0.0000000   0.0000000   0.0000000   0.0000000   0.0000000
 NQMom=    0.0000000   0.0000000   0.0000000   0.0000000   0.0000000   0.0000000   0.0000000   0.0000000   0.0000000   0.0000000
 NMagM=    0.0000000   2.7928460   2.7928460   2.7928460   2.7928460   0.0000000   0.0000000   0.0000000   0.0000000   2.7928460
 AtZNuc=   8.0000000   1.0000000   1.0000000   1.0000000   1.0000000   6.0000000   6.0000000   8.0000000   8.0000000   1.0000000

  Atom        21          22          23          24          25          26          27          28          29          30
 IAtWgt=           1           1          12           1           1           1          14          12          12          14
 AtmWgt=   1.0078250   1.0078250  12.0000000   1.0078250   1.0078250   1.0078250  14.0030740  12.0000000  12.0000000  14.0030740
 NucSpn=           1           1           0           1           1           1           2           0           0           2
 AtZEff=   0.0000000   0.0000000   0.0000000   0.0000000   0.0000000   0.0000000   0.0000000   0.0000000   0.0000000   0.0000000
 NQMom=    0.0000000   0.0000000   0.0000000   0.0000000   0.0000000   0.0000000   2.0440000   0.0000000   0.0000000   2.0440000
 NMagM=    2.7928460   2.7928460   0.0000000   2.7928460   2.7928460   2.7928460   0.4037610   0.0000000   0.0000000   0.4037610
 AtZNuc=   1.0000000   1.0000000   6.0000000   1.0000000   1.0000000   1.0000000   7.0000000   6.0000000   6.0000000   7.0000000

  Atom        31          32          33          34          35          36          37          38          39          40
 IAtWgt=           1          12           1          12          12           1           1           1           1           1
 AtmWgt=   1.0078250  12.0000000   1.0078250  12.0000000  12.0000000   1.0078250   1.0078250   1.0078250   1.0078250   1.0078250
 NucSpn=           1           0           1           0           0           1           1           1           1           1
 AtZEff=   0.0000000   0.0000000   0.0000000   0.0000000   0.0000000   0.0000000   0.0000000   0.0000000   0.0000000   0.0000000
 NQMom=    0.0000000   0.0000000   0.0000000   0.0000000   0.0000000   0.0000000   0.0000000   0.0000000   0.0000000   0.0000000
 NMagM=    2.7928460   0.0000000   2.7928460   0.0000000   0.0000000   2.7928460   2.7928460   2.7928460   2.7928460   2.7928460
 AtZNuc=   1.0000000   6.0000000   1.0000000   6.0000000   6.0000000   1.0000000   1.0000000   1.0000000   1.0000000   1.0000000

  Atom        41          42          43          44          45          46          47          48          49          50
 IAtWgt=          12          12           1           1           1          14          16          12           1           1
 AtmWgt=  12.0000000  12.0000000   1.0078250   1.0078250   1.0078250  14.0030740  15.9949146  12.0000000   1.0078250   1.0078250
 NucSpn=           0           0           1           1           1           2           0           0           1           1
 AtZEff=   0.0000000   0.0000000   0.0000000   0.0000000   0.0000000   0.0000000   0.0000000   0.0000000   0.0000000   0.0000000
 NQMom=    0.0000000   0.0000000   0.0000000   0.0000000   0.0000000   2.0440000   0.0000000   0.0000000   0.0000000   0.0000000
 NMagM=    0.0000000   0.0000000   2.7928460   2.7928460   2.7928460   0.4037610   0.0000000   0.0000000   2.7928460   2.7928460
 AtZNuc=   6.0000000   6.0000000   1.0000000   1.0000000   1.0000000   7.0000000   8.0000000   6.0000000   1.0000000   1.0000000

  Atom        51          52          53          54          55          56          57          58          59          60
 IAtWgt=           1           1          12          12          16          16          12           1           1           1
 AtmWgt=   1.0078250   1.0078250  12.0000000  12.0000000  15.9949146  15.9949146  12.0000000   1.0078250   1.0078250   1.0078250
 NucSpn=           1           1           0           0           0           0           0           1           1           1
 AtZEff=   0.0000000   0.0000000   0.0000000   0.0000000   0.0000000   0.0000000   0.0000000   0.0000000   0.0000000   0.0000000
 NQMom=    0.0000000   0.0000000   0.0000000   0.0000000   0.0000000   0.0000000   0.0000000   0.0000000   0.0000000   0.0000000
 NMagM=    2.7928460   2.7928460   0.0000000   0.0000000   0.0000000   0.0000000   0.0000000   2.7928460   2.7928460   2.7928460
 AtZNuc=   1.0000000   1.0000000   6.0000000   6.0000000   8.0000000   8.0000000   6.0000000   1.0000000   1.0000000   1.0000000

  Atom        61          62          63          64          65          66          67          68          69          70
 IAtWgt=           1           1          14          12          12           1           1           1           1          12
 AtmWgt=   1.0078250   1.0078250  14.0030740  12.0000000  12.0000000   1.0078250   1.0078250   1.0078250   1.0078250  12.0000000
 NucSpn=           1           1           2           0           0           1           1           1           1           0
 AtZEff=   0.0000000   0.0000000   0.0000000   0.0000000   0.0000000   0.0000000   0.0000000   0.0000000   0.0000000   0.0000000
 NQMom=    0.0000000   0.0000000   2.0440000   0.0000000   0.0000000   0.0000000   0.0000000   0.0000000   0.0000000   0.0000000
 NMagM=    2.7928460   2.7928460   0.4037610   0.0000000   0.0000000   2.7928460   2.7928460   2.7928460   2.7928460   0.0000000
 AtZNuc=   1.0000000   1.0000000   7.0000000   6.0000000   6.0000000   1.0000000   1.0000000   1.0000000   1.0000000   6.0000000

  Atom        71          72          73          74          75          76          77          78          79
 IAtWgt=          16           1           1           1          16           1           1           1           1
 AtmWgt=  15.9949146   1.0078250   1.0078250   1.0078250  15.9949146   1.0078250   1.0078250   1.0078250   1.0078250
 NucSpn=           0           1           1           1           0           1           1           1           1
 AtZEff=   0.0000000   0.0000000   0.0000000   0.0000000   0.0000000   0.0000000   0.0000000   0.0000000   0.0000000
 NQMom=    0.0000000   0.0000000   0.0000000   0.0000000   0.0000000   0.0000000   0.0000000   0.0000000   0.0000000
 NMagM=    0.0000000   2.7928460   2.7928460   2.7928460   0.0000000   2.7928460   2.7928460   2.7928460   2.7928460
 AtZNuc=   8.0000000   1.0000000   1.0000000   1.0000000   8.0000000   1.0000000   1.0000000   1.0000000   1.0000000
 Leave Link  101 at Tue Sep  1 13:49:13 2020, MaxMem=  2147483648 cpu:         4.3
 (Enter /global/apps/Gaussian/09.d01/l202.exe)
 Stoichiometry    C21H44N5O9(1-)
 Framework group  C1[X(C21H44N5O9)]
 Deg. of freedom   231
 Full point group                 C1      NOp   1
 Largest Abelian subgroup         C1      NOp   1
 Largest concise Abelian subgroup C1      NOp   1
                         Standard orientation:                         
 ---------------------------------------------------------------------
 Center     Atomic      Atomic             Coordinates (Angstroms)
 Number     Number       Type             X           Y           Z
 ---------------------------------------------------------------------
      1          6           0       -3.804419    3.404113   -1.216440
      2          6           0       -2.582193    3.378651   -0.297252
      3          7           0       -4.741142    2.434232   -1.082251
      4          6           0       -2.370060    2.255590    0.713719
      5          1           0       -1.706333    3.439796   -0.953004
      6          1           0       -2.620657    4.339286    0.233808
      7          8           0       -3.930264    4.326253   -2.025525
      8          6           0       -5.932136    2.496553   -1.910990
      9          1           0       -4.601094    1.630788   -0.463411
     10          1           0       -1.615946    2.585414    1.447643
     11          8           0       -1.918433    1.070929    0.094008
     12          1           0       -3.293140    2.049599    1.271846
     13          1           0       -5.671973    2.523411   -2.974743
     14          1           0       -6.514024    3.400195   -1.696505
     15          1           0       -6.547161    1.616705   -1.711209
     16          6           0       -3.080677   -0.314774    0.155159
     17          6           0       -2.946921   -0.757613   -1.285601
     18          8           0       -2.360648   -1.197742    0.967098
     19          8           0       -4.173007    0.151187    0.591401
     20          1           0       -1.913920   -1.011934   -1.527314
     21          1           0       -3.584388   -1.635361   -1.434296
     22          1           0       -3.290038    0.050394   -1.931845
     23          6           0       -2.477891   -0.947320    2.363231
     24          1           0       -1.950246   -1.761347    2.865661
     25          1           0       -2.009745    0.009986    2.626277
     26          1           0       -3.523301   -0.924043    2.684461
     27          7           0        0.419615    0.707571    0.815451
     28          6           0        1.362235    1.406701    0.185263
     29          6           0        1.045391    0.025287    1.838464
     30          7           0        2.556888    1.201251    0.752305
     31          1           0        1.188078    2.047547   -0.665300
     32          6           0        2.388941    0.324953    1.808030
     33          1           0        0.497876   -0.626386    2.500640
     34          6           0        3.532952   -0.156075    2.649276
     35          6           0        4.361827    0.976247    3.285533
     36          1           0        3.123225   -0.806250    3.430724
     37          1           0        4.196830   -0.781626    2.041709
     38          1           0        5.210356    0.557182    3.835029
     39          1           0        3.756455    1.566463    3.982464
     40          1           0        4.748057    1.652526    2.518575
     41          6           0       -7.465869   -0.876228   -0.163904
     42          6           0       -6.926927   -2.256598    0.200673
     43          1           0       -6.750497   -0.073745    0.028825
     44          1           0       -8.384926   -0.692941    0.400380
     45          1           0       -7.732649   -0.877788   -1.225286
     46          7           0       -5.660929   -2.244572    0.681838
     47          8           0       -7.596765   -3.278811    0.051481
     48          6           0       -4.945644   -3.457871    1.014426
     49          1           0       -5.167738   -1.353076    0.749797
     50          1           0       -5.251562   -4.261174    0.338646
     51          1           0       -5.152299   -3.792152    2.040733
     52          1           0       -3.874143   -3.271402    0.914384
     53          6           0        5.652250    1.397497   -0.120522
     54          6           0        7.123235    1.824110   -0.122184
     55          8           0        4.806923    2.307484    0.139917
     56          8           0        5.371992    0.186557   -0.337870
     57          6           0        8.071513    0.798973   -0.737024
     58          1           0        7.392178    2.021620    0.924445
     59          1           0        7.185000    2.792895   -0.630119
     60          1           0        9.111816    1.139842   -0.685868
     61          1           0        7.824022    0.617857   -1.787729
     62          1           0        7.994911   -0.161310   -0.220635
     63          7           0        3.549669   -1.773618   -1.372002
     64          6           0        2.106002   -1.864823   -1.232070
     65          6           0        4.208829   -2.542062   -2.294568
     66          1           0        4.024376   -0.945591   -1.005560
     67          1           0        1.814783   -1.573993   -0.220879
     68          1           0        1.576488   -1.219024   -1.945876
     69          1           0        1.798697   -2.894454   -1.421612
     70          6           0        5.704649   -2.274127   -2.393550
     71          8           0        3.652513   -3.419420   -2.952434
     72          1           0        5.922057   -1.203058   -2.393678
     73          1           0        6.207884   -2.690377   -1.514913
     74          1           0        6.084471   -2.750757   -3.297751
     75          8           0        5.759951   -2.224916    0.933957
     76          1           0        4.958800   -2.536695    0.488655
     77          1           0        5.852432   -1.332113    0.543488
     78          1           0        3.502372    1.660830    0.441231
     79          1           0       -0.732701    0.780924    0.496440
 ---------------------------------------------------------------------
 Rotational constants (GHZ):      0.1537263      0.0425633      0.0388602
 Leave Link  202 at Tue Sep  1 13:49:13 2020, MaxMem=  2147483648 cpu:         1.0
 (Enter /global/apps/Gaussian/09.d01/l301.exe)
 Standard basis: 6-31G(d,p) (6D, 7F)
 Ernie: Thresh=  0.10000D-02 Tol=  0.10000D-05 Strict=F.
 There are   745 symmetry adapted cartesian basis functions of A   symmetry.
 There are   745 symmetry adapted basis functions of A   symmetry.
   745 basis functions,  1288 primitive gaussians,   745 cartesian basis functions
   139 alpha electrons      139 beta electrons
       nuclear repulsion energy      4054.5487280136 Hartrees.
 IExCor=  402 DFT=T Ex+Corr=B3LYP ExCW=0 ScaHFX=  0.200000
 ScaDFX=  0.800000  0.720000  1.000000  0.810000 ScalE2=  1.000000  1.000000
 IRadAn=      0 IRanWt=     -1 IRanGd=            0 ICorTp=0 IEmpDi=131
 NAtoms=   79 NActive=   79 NUniq=   79 SFac= 1.00D+00 NAtFMM=   60 NAOKFM=T Big=T
 Integral buffers will be    131072 words long.
 Raffenetti 2 integral format.
 Two-electron integral symmetry is turned on.
 R6Disp:  Grimme-D3 Dispersion energy=       -0.0964812072 Hartrees.
 Nuclear repulsion after empirical dispersion term =     4054.4522468064 Hartrees.
 Using the following non-standard input for PCM:
 Eps=4
 --- end of non-standard input.
 ------------------------------------------------------------------------------
 Polarizable Continuum Model (PCM)
 =================================
 Model                : PCM (using non-symmetric T matrix).
 Atomic radii         : SMD-Coulomb.
 Polarization charges : Total charges.
 Charge compensation  : None.
 Solution method      : On-the-fly selection.
 Cavity type          : VdW (van der Waals Surface) (Alpha=1.000).
 Cavity algorithm     : GePol (No added spheres)
                        Default sphere list used, NSphG=   79.
                        Lebedev-Laikov grids with approx.  5.0 points / Ang**2.
                        Smoothing algorithm: Karplus/York (Gamma=1.0000).
                        Polarization charges: spherical gaussians, with
                                              point-specific exponents (IZeta= 3).
                        Self-potential: point-specific (ISelfS= 7).
                        Self-field    : sphere-specific E.n sum rule (ISelfD= 2).
 Solvent              : Water, Eps=   4.000000 Eps(inf)=   1.777849
 ------------------------------------------------------------------------------
 GePol: Number of generator spheres                  =      79
 GePol: Total number of spheres                      =      79
 GePol: Number of exposed spheres                    =      79 (100.00%)
 GePol: Number of points                             =    5669
 GePol: Average weight of points                     =       0.11
 GePol: Minimum weight of points                     =   0.13D-11
 GePol: Maximum weight of points                     =    0.21991
 GePol: Number of points with low weight             =     361
 GePol: Fraction of low-weight points (<1% of avg)   =       6.37%
 GePol: Cavity surface area                          =    630.081 Ang**2
 GePol: Cavity volume                                =    544.291 Ang**3
 ------------------------------------------------------------------------------
 Atomic radii for non-electrostatic terms: SMD-CDS.
 ------------------------------------------------------------------------------
 PCM non-electrostatic energy =         0.0246737405 Hartrees.
 Nuclear repulsion after PCM non-electrostatic terms =     4054.4769205469 Hartrees.
 Leave Link  301 at Tue Sep  1 13:49:14 2020, MaxMem=  2147483648 cpu:         4.2
 (Enter /global/apps/Gaussian/09.d01/l302.exe)
 NPDir=0 NMtPBC=     1 NCelOv=     1 NCel=       1 NClECP=     1 NCelD=      1
         NCelK=      1 NCelE2=     1 NClLst=     1 CellRange=     0.0.
 One-electron integrals computed using PRISM.
 NBasis=   745 RedAO= T EigKep=  1.11D-03  NBF=   745
 NBsUse=   745 1.00D-06 EigRej= -1.00D+00 NBFU=   745
 Precomputing XC quadrature grid using
 IXCGrd= 4 IRadAn=           0 IRanWt=          -1 IRanGd=           0 AccXCQ= 0.00D+00.
 Generated NRdTot=       0 NPtTot=           0 NUsed=           0 NTot=          32
 NSgBfM=   663   663   663   671   671 MxSgAt=    79 MxSgA2=    79.
 Leave Link  302 at Tue Sep  1 13:49:15 2020, MaxMem=  2147483648 cpu:        29.2
 (Enter /global/apps/Gaussian/09.d01/l303.exe)
 DipDrv:  MaxL=1.
 Leave Link  303 at Tue Sep  1 13:49:16 2020, MaxMem=  2147483648 cpu:         2.6
 (Enter /global/apps/Gaussian/09.d01/l401.exe)
 ExpMin= 1.61D-01 ExpMax= 5.48D+03 ExpMxC= 8.25D+02 IAcc=1 IRadAn=         1 AccDes= 0.00D+00
 Harris functional with IExCor=  402 and IRadAn=       1 diagonalized for initial guess.
 HarFok:  IExCor=  402 AccDes= 0.00D+00 IRadAn=         1 IDoV= 1 UseB2=F ITyADJ=14
 ICtDFT=  3500011 ScaDFX=  1.000000  1.000000  1.000000  1.000000
 FoFCou: FMM=F IPFlag=           0 FMFlag=      100000 FMFlg1=        2001
         NFxFlg=           0 DoJE=T BraDBF=F KetDBF=T FulRan=T
         wScrn=  0.000000 ICntrl=     500 IOpCl=  0 I1Cent=   200000004 NGrid=           0
         NMat0=    1 NMatS0=      1 NMatT0=    0 NMatD0=    1 NMtDS0=    0 NMtDT0=    0
 Petite list used in FoFCou.
 Harris En= -1778.09730384360    
 JPrj=0 DoOrth=F DoCkMO=F.
 Leave Link  401 at Tue Sep  1 13:49:18 2020, MaxMem=  2147483648 cpu:        33.6
 (Enter /global/apps/Gaussian/09.d01/l502.exe)
 Closed shell SCF:
 Using DIIS extrapolation, IDIIS=  1040.
 Integral symmetry usage will be decided dynamically.
 IVT=     1704170 IEndB=     1704170 NGot=  2147483648 MDV=  2146351889
 LenX=  2146351889 LenY=  2145796119
 Requested convergence on RMS density matrix=1.00D-08 within 128 cycles.
 Requested convergence on MAX density matrix=1.00D-06.
 Requested convergence on             energy=1.00D-06.
 No special actions if energy rises.
 Fock matrices will be formed incrementally for  20 cycles.

 Cycle   1  Pass 1  IDiag  1:
 FoFJK:  IHMeth= 1 ICntrl=       0 DoSepK=F KAlg= 0 I1Cent=   0 FoldK=F
 IRaf= 660000000 NMat=   1 IRICut=       1 DoRegI=T DoRafI=F ISym2E= 0.
 FoFCou: FMM=T IPFlag=           0 FMFlag=      100000 FMFlg1=        2001
         NFxFlg=           0 DoJE=F BraDBF=F KetDBF=F FulRan=T
         wScrn=  0.000000 ICntrl=       0 IOpCl=  0 I1Cent=           0 NGrid=           0
         NMat0=    1 NMatS0=      1 NMatT0=    0 NMatD0=    1 NMtDS0=    0 NMtDT0=    0
 Symmetry not used in FoFCou.
 FMM levels:  10  Number of levels for PrismC:   9
 Inv3:  Mode=1 IEnd=    96412683.
 Iteration    1 A*A^-1 deviation from unit magnitude is 1.35D-14 for   4381.
 Iteration    1 A*A^-1 deviation from orthogonality  is 1.18D-14 for   5534   4906.
 Iteration    1 A^-1*A deviation from unit magnitude is 1.37D-14 for   3660.
 Iteration    1 A^-1*A deviation from orthogonality  is 3.38D-10 for   4159   4156.
 Iteration    2 A*A^-1 deviation from unit magnitude is 1.17D-14 for   2130.
 Iteration    2 A*A^-1 deviation from orthogonality  is 8.70D-15 for   3249    396.
 Iteration    2 A^-1*A deviation from unit magnitude is 1.78D-15 for     17.
 Iteration    2 A^-1*A deviation from orthogonality  is 1.08D-15 for   2341    167.
 E= -1776.81117572599    
 DIIS: error= 2.58D-02 at cycle   1 NSaved=   1.
 NSaved= 1 IEnMin= 1 EnMin= -1776.81117572599     IErMin= 1 ErrMin= 2.58D-02
 ErrMax= 2.58D-02  0.00D+00 EMaxC= 1.00D-01 BMatC= 1.26D+00 BMatP= 1.26D+00
 IDIUse=3 WtCom= 7.42D-01 WtEn= 2.58D-01
 Coeff-Com:  0.100D+01
 Coeff-En:   0.100D+01
 Coeff:      0.100D+01
 Gap=     0.257 Goal=   None    Shift=    0.000
 GapD=    0.257 DampG=1.000 DampE=0.500 DampFc=0.5000 IDamp=-1.
 Damping current iteration by 5.00D-01
 RMSDP=3.03D-03 MaxDP=1.88D-01              OVMax= 2.00D-01

 Cycle   2  Pass 1  IDiag  1:
 RMSU=  1.51D-03    CP:  9.85D-01
 E= -1777.25305802856     Delta-E=       -0.441882302563 Rises=F Damp=T
 DIIS: error= 6.97D-03 at cycle   2 NSaved=   2.
 NSaved= 2 IEnMin= 2 EnMin= -1777.25305802856     IErMin= 2 ErrMin= 6.97D-03
 ErrMax= 6.97D-03  0.00D+00 EMaxC= 1.00D-01 BMatC= 9.62D-02 BMatP= 1.26D+00
 IDIUse=3 WtCom= 9.30D-01 WtEn= 6.97D-02
 Coeff-Com:  0.134D+00 0.866D+00
 Coeff-En:   0.198D+00 0.802D+00
 Coeff:      0.138D+00 0.862D+00
 Gap=     0.279 Goal=   None    Shift=    0.000
 RMSDP=7.16D-04 MaxDP=5.48D-02 DE=-4.42D-01 OVMax= 1.57D-01

 Cycle   3  Pass 1  IDiag  1:
 RMSU=  6.69D-04    CP:  9.79D-01  8.37D-01
 E= -1777.84381121169     Delta-E=       -0.590753183130 Rises=F Damp=F
 DIIS: error= 9.46D-03 at cycle   3 NSaved=   3.
 NSaved= 3 IEnMin= 3 EnMin= -1777.84381121169     IErMin= 2 ErrMin= 6.97D-03
 ErrMax= 9.46D-03  0.00D+00 EMaxC= 1.00D-01 BMatC= 8.07D-02 BMatP= 9.62D-02
 IDIUse=3 WtCom= 9.05D-01 WtEn= 9.46D-02
 Coeff-Com:  0.336D-01 0.477D+00 0.489D+00
 Coeff-En:   0.000D+00 0.000D+00 0.100D+01
 Coeff:      0.304D-01 0.432D+00 0.538D+00
 Gap=     0.251 Goal=   None    Shift=    0.000
 RMSDP=4.55D-04 MaxDP=3.90D-02 DE=-5.91D-01 OVMax= 6.53D-02

 Cycle   4  Pass 1  IDiag  1:
 RMSU=  2.65D-04    CP:  9.83D-01  8.94D-01  4.66D-01
 E= -1777.89735857586     Delta-E=       -0.053547364171 Rises=F Damp=F
 DIIS: error= 4.46D-03 at cycle   4 NSaved=   4.
 NSaved= 4 IEnMin= 4 EnMin= -1777.89735857586     IErMin= 4 ErrMin= 4.46D-03
 ErrMax= 4.46D-03  0.00D+00 EMaxC= 1.00D-01 BMatC= 1.66D-02 BMatP= 8.07D-02
 IDIUse=3 WtCom= 9.55D-01 WtEn= 4.46D-02
 Coeff-Com:  0.147D-02 0.843D-01 0.320D+00 0.594D+00
 Coeff-En:   0.000D+00 0.000D+00 0.189D+00 0.811D+00
 Coeff:      0.141D-02 0.806D-01 0.314D+00 0.604D+00
 Gap=     0.257 Goal=   None    Shift=    0.000
 RMSDP=1.74D-04 MaxDP=1.54D-02 DE=-5.35D-02 OVMax= 2.54D-02

 Cycle   5  Pass 1  IDiag  1:
 RMSU=  7.64D-05    CP:  9.82D-01  8.68D-01  6.22D-01  5.88D-01
 E= -1777.90953235858     Delta-E=       -0.012173782720 Rises=F Damp=F
 DIIS: error= 1.17D-03 at cycle   5 NSaved=   5.
 NSaved= 5 IEnMin= 5 EnMin= -1777.90953235858     IErMin= 5 ErrMin= 1.17D-03
 ErrMax= 1.17D-03  0.00D+00 EMaxC= 1.00D-01 BMatC= 1.40D-03 BMatP= 1.66D-02
 IDIUse=3 WtCom= 9.88D-01 WtEn= 1.17D-02
 Coeff-Com: -0.719D-03 0.155D-01 0.147D+00 0.355D+00 0.483D+00
 Coeff-En:   0.000D+00 0.000D+00 0.000D+00 0.000D+00 0.100D+01
 Coeff:     -0.710D-03 0.153D-01 0.145D+00 0.351D+00 0.490D+00
 Gap=     0.250 Goal=   None    Shift=    0.000
 RMSDP=4.84D-05 MaxDP=4.03D-03 DE=-1.22D-02 OVMax= 7.65D-03

 Cycle   6  Pass 1  IDiag  1:
 RMSU=  1.88D-05    CP:  9.82D-01  8.75D-01  6.14D-01  6.56D-01  4.85D-01
 E= -1777.91063759574     Delta-E=       -0.001105237164 Rises=F Damp=F
 DIIS: error= 2.03D-04 at cycle   6 NSaved=   6.
 NSaved= 6 IEnMin= 6 EnMin= -1777.91063759574     IErMin= 6 ErrMin= 2.03D-04
 ErrMax= 2.03D-04  0.00D+00 EMaxC= 1.00D-01 BMatC= 5.68D-05 BMatP= 1.40D-03
 IDIUse=3 WtCom= 9.98D-01 WtEn= 2.03D-03
 Coeff-Com: -0.475D-03 0.442D-03 0.428D-01 0.115D+00 0.237D+00 0.605D+00
 Coeff-En:   0.000D+00 0.000D+00 0.000D+00 0.000D+00 0.000D+00 0.100D+01
 Coeff:     -0.474D-03 0.442D-03 0.427D-01 0.115D+00 0.237D+00 0.606D+00
 Gap=     0.250 Goal=   None    Shift=    0.000
 RMSDP=9.92D-06 MaxDP=7.91D-04 DE=-1.11D-03 OVMax= 8.98D-04

 Cycle   7  Pass 1  IDiag  1:
 RMSU=  5.84D-06    CP:  9.82D-01  8.74D-01  6.15D-01  6.54D-01  5.32D-01
                    CP:  6.25D-01
 E= -1777.91067849506     Delta-E=       -0.000040899319 Rises=F Damp=F
 DIIS: error= 5.66D-05 at cycle   7 NSaved=   7.
 NSaved= 7 IEnMin= 7 EnMin= -1777.91067849506     IErMin= 7 ErrMin= 5.66D-05
 ErrMax= 5.66D-05  0.00D+00 EMaxC= 1.00D-01 BMatC= 5.78D-06 BMatP= 5.68D-05
 IDIUse=1 WtCom= 1.00D+00 WtEn= 0.00D+00
 Coeff-Com: -0.217D-03-0.607D-03 0.150D-01 0.423D-01 0.105D+00 0.340D+00
 Coeff-Com:  0.498D+00
 Coeff:     -0.217D-03-0.607D-03 0.150D-01 0.423D-01 0.105D+00 0.340D+00
 Coeff:      0.498D+00
 Gap=     0.250 Goal=   None    Shift=    0.000
 RMSDP=3.11D-06 MaxDP=2.42D-04 DE=-4.09D-05 OVMax= 2.86D-04

 Cycle   8  Pass 1  IDiag  1:
 RMSU=  1.57D-06    CP:  9.82D-01  8.74D-01  6.16D-01  6.55D-01  5.36D-01
                    CP:  6.74D-01  5.82D-01
 E= -1777.91068284922     Delta-E=       -0.000004354157 Rises=F Damp=F
 DIIS: error= 1.57D-05 at cycle   8 NSaved=   8.
 NSaved= 8 IEnMin= 8 EnMin= -1777.91068284922     IErMin= 8 ErrMin= 1.57D-05
 ErrMax= 1.57D-05  0.00D+00 EMaxC= 1.00D-01 BMatC= 2.76D-07 BMatP= 5.78D-06
 IDIUse=1 WtCom= 1.00D+00 WtEn= 0.00D+00
 Coeff-Com: -0.578D-04-0.284D-03 0.327D-02 0.935D-02 0.294D-01 0.105D+00
 Coeff-Com:  0.229D+00 0.624D+00
 Coeff:     -0.578D-04-0.284D-03 0.327D-02 0.935D-02 0.294D-01 0.105D+00
 Coeff:      0.229D+00 0.624D+00
 Gap=     0.250 Goal=   None    Shift=    0.000
 RMSDP=8.28D-07 MaxDP=7.74D-05 DE=-4.35D-06 OVMax= 8.44D-05

 Cycle   9  Pass 1  IDiag  1:
 RMSU=  5.85D-07    CP:  9.82D-01  8.74D-01  6.16D-01  6.55D-01  5.38D-01
                    CP:  6.75D-01  6.04D-01  6.59D-01
 E= -1777.91068302019     Delta-E=       -0.000000170971 Rises=F Damp=F
 DIIS: error= 7.81D-06 at cycle   9 NSaved=   9.
 NSaved= 9 IEnMin= 9 EnMin= -1777.91068302019     IErMin= 9 ErrMin= 7.81D-06
 ErrMax= 7.81D-06  0.00D+00 EMaxC= 1.00D-01 BMatC= 5.29D-08 BMatP= 2.76D-07
 IDIUse=1 WtCom= 1.00D+00 WtEn= 0.00D+00
 Coeff-Com: -0.717D-05-0.823D-04-0.619D-04-0.192D-03 0.334D-02 0.142D-01
 Coeff-Com:  0.619D-01 0.351D+00 0.570D+00
 Coeff:     -0.717D-05-0.823D-04-0.619D-04-0.192D-03 0.334D-02 0.142D-01
 Coeff:      0.619D-01 0.351D+00 0.570D+00
 Gap=     0.250 Goal=   None    Shift=    0.000
 RMSDP=3.01D-07 MaxDP=3.04D-05 DE=-1.71D-07 OVMax= 3.05D-05

 Cycle  10  Pass 1  IDiag  1:
 RMSU=  1.40D-07    CP:  9.82D-01  8.74D-01  6.16D-01  6.55D-01  5.38D-01
                    CP:  6.76D-01  6.15D-01  7.42D-01  6.29D-01
 E= -1777.91068306175     Delta-E=       -0.000000041562 Rises=F Damp=F
 DIIS: error= 1.70D-06 at cycle  10 NSaved=  10.
 NSaved=10 IEnMin=10 EnMin= -1777.91068306175     IErMin=10 ErrMin= 1.70D-06
 ErrMax= 1.70D-06  0.00D+00 EMaxC= 1.00D-01 BMatC= 2.60D-09 BMatP= 5.29D-08
 IDIUse=1 WtCom= 1.00D+00 WtEn= 0.00D+00
 Coeff-Com: -0.168D-05-0.280D-04-0.179D-03-0.514D-03 0.473D-03 0.246D-02
 Coeff-Com:  0.211D-01 0.151D+00 0.288D+00 0.538D+00
 Coeff:     -0.168D-05-0.280D-04-0.179D-03-0.514D-03 0.473D-03 0.246D-02
 Coeff:      0.211D-01 0.151D+00 0.288D+00 0.538D+00
 Gap=     0.250 Goal=   None    Shift=    0.000
 RMSDP=7.57D-08 MaxDP=8.20D-06 DE=-4.16D-08 OVMax= 9.88D-06

 Cycle  11  Pass 1  IDiag  1:
 RMSU=  5.48D-08    CP:  9.82D-01  8.74D-01  6.16D-01  6.55D-01  5.39D-01
                    CP:  6.76D-01  6.16D-01  7.48D-01  6.67D-01  6.82D-01
 E= -1777.91068306363     Delta-E=       -0.000000001878 Rises=F Damp=F
 DIIS: error= 6.89D-07 at cycle  11 NSaved=  11.
 NSaved=11 IEnMin=11 EnMin= -1777.91068306363     IErMin=11 ErrMin= 6.89D-07
 ErrMax= 6.89D-07  0.00D+00 EMaxC= 1.00D-01 BMatC= 4.36D-10 BMatP= 2.60D-09
 IDIUse=1 WtCom= 1.00D+00 WtEn= 0.00D+00
 Coeff-Com: -0.168D-06-0.113D-05-0.962D-04-0.269D-03-0.261D-03-0.104D-02
 Coeff-Com:  0.168D-02 0.287D-01 0.689D-01 0.310D+00 0.592D+00
 Coeff:     -0.168D-06-0.113D-05-0.962D-04-0.269D-03-0.261D-03-0.104D-02
 Coeff:      0.168D-02 0.287D-01 0.689D-01 0.310D+00 0.592D+00
 Gap=     0.250 Goal=   None    Shift=    0.000
 RMSDP=2.81D-08 MaxDP=3.92D-06 DE=-1.88D-09 OVMax= 4.89D-06

 Cycle  12  Pass 1  IDiag  1:
 RMSU=  1.55D-08    CP:  9.82D-01  8.74D-01  6.16D-01  6.55D-01  5.39D-01
                    CP:  6.76D-01  6.16D-01  7.51D-01  6.71D-01  7.66D-01
                    CP:  6.50D-01
 E= -1777.91068306378     Delta-E=       -0.000000000153 Rises=F Damp=F
 DIIS: error= 2.05D-07 at cycle  12 NSaved=  12.
 NSaved=12 IEnMin=12 EnMin= -1777.91068306378     IErMin=12 ErrMin= 2.05D-07
 ErrMax= 2.05D-07  0.00D+00 EMaxC= 1.00D-01 BMatC= 3.44D-11 BMatP= 4.36D-10
 IDIUse=1 WtCom= 1.00D+00 WtEn= 0.00D+00
 Coeff-Com: -0.119D-06 0.140D-05-0.438D-04-0.120D-03-0.179D-03-0.773D-03
 Coeff-Com: -0.496D-03 0.592D-02 0.190D-01 0.133D+00 0.327D+00 0.517D+00
 Coeff:     -0.119D-06 0.140D-05-0.438D-04-0.120D-03-0.179D-03-0.773D-03
 Coeff:     -0.496D-03 0.592D-02 0.190D-01 0.133D+00 0.327D+00 0.517D+00
 Gap=     0.250 Goal=   None    Shift=    0.000
 RMSDP=8.66D-09 MaxDP=9.57D-07 DE=-1.53D-10 OVMax= 1.62D-06

 Error on total polarization charges =  0.05638
 SCF Done:  E(RB3LYP) =  -1777.91068306     A.U. after   12 cycles
            NFock= 12  Conv=0.87D-08     -V/T= 2.0092
 KE= 1.761706849653D+03 PE=-1.228447869460D+04 EE= 4.690384241332D+03
 SMD-CDS (non-electrostatic) energy       (kcal/mol) =      15.48
 (included in total energy above)
 Leave Link  502 at Tue Sep  1 13:51:28 2020, MaxMem=  2147483648 cpu:      2449.6
 (Enter /global/apps/Gaussian/09.d01/l601.exe)
 Copying SCF densities to generalized density rwf, IOpCl= 0 IROHF=0.

 **********************************************************************

            Population analysis using the SCF density.

 **********************************************************************

 Orbital symmetries:
       Occupied  (A) (A) (A) (A) (A) (A) (A) (A) (A) (A) (A) (A)
                 (A) (A) (A) (A) (A) (A) (A) (A) (A) (A) (A) (A)
                 (A) (A) (A) (A) (A) (A) (A) (A) (A) (A) (A) (A)
                 (A) (A) (A) (A) (A) (A) (A) (A) (A) (A) (A) (A)
                 (A) (A) (A) (A) (A) (A) (A) (A) (A) (A) (A) (A)
                 (A) (A) (A) (A) (A) (A) (A) (A) (A) (A) (A) (A)
                 (A) (A) (A) (A) (A) (A) (A) (A) (A) (A) (A) (A)
                 (A) (A) (A) (A) (A) (A) (A) (A) (A) (A) (A) (A)
                 (A) (A) (A) (A) (A) (A) (A) (A) (A) (A) (A) (A)
                 (A) (A) (A) (A) (A) (A) (A) (A) (A) (A) (A) (A)
                 (A) (A) (A) (A) (A) (A) (A) (A) (A) (A) (A) (A)
                 (A) (A) (A) (A) (A) (A) (A)
       Virtual   (A) (A) (A) (A) (A) (A) (A) (A) (A) (A) (A) (A)
                 (A) (A) (A) (A) (A) (A) (A) (A) (A) (A) (A) (A)
                 (A) (A) (A) (A) (A) (A) (A) (A) (A) (A) (A) (A)
                 (A) (A) (A) (A) (A) (A) (A) (A) (A) (A) (A) (A)
                 (A) (A) (A) (A) (A) (A) (A) (A) (A) (A) (A) (A)
                 (A) (A) (A) (A) (A) (A) (A) (A) (A) (A) (A) (A)
                 (A) (A) (A) (A) (A) (A) (A) (A) (A) (A) (A) (A)
                 (A) (A) (A) (A) (A) (A) (A) (A) (A) (A) (A) (A)
                 (A) (A) (A) (A) (A) (A) (A) (A) (A) (A) (A) (A)
                 (A) (A) (A) (A) (A) (A) (A) (A) (A) (A) (A) (A)
                 (A) (A) (A) (A) (A) (A) (A) (A) (A) (A) (A) (A)
                 (A) (A) (A) (A) (A) (A) (A) (A) (A) (A) (A) (A)
                 (A) (A) (A) (A) (A) (A) (A) (A) (A) (A) (A) (A)
                 (A) (A) (A) (A) (A) (A) (A) (A) (A) (A) (A) (A)
                 (A) (A) (A) (A) (A) (A) (A) (A) (A) (A) (A) (A)
                 (A) (A) (A) (A) (A) (A) (A) (A) (A) (A) (A) (A)
                 (A) (A) (A) (A) (A) (A) (A) (A) (A) (A) (A) (A)
                 (A) (A) (A) (A) (A) (A) (A) (A) (A) (A) (A) (A)
                 (A) (A) (A) (A) (A) (A) (A) (A) (A) (A) (A) (A)
                 (A) (A) (A) (A) (A) (A) (A) (A) (A) (A) (A) (A)
                 (A) (A) (A) (A) (A) (A) (A) (A) (A) (A) (A) (A)
                 (A) (A) (A) (A) (A) (A) (A) (A) (A) (A) (A) (A)
                 (A) (A) (A) (A) (A) (A) (A) (A) (A) (A) (A) (A)
                 (A) (A) (A) (A) (A) (A) (A) (A) (A) (A) (A) (A)
                 (A) (A) (A) (A) (A) (A) (A) (A) (A) (A) (A) (A)
                 (A) (A) (A) (A) (A) (A) (A) (A) (A) (A) (A) (A)
                 (A) (A) (A) (A) (A) (A) (A) (A) (A) (A) (A) (A)
                 (A) (A) (A) (A) (A) (A) (A) (A) (A) (A) (A) (A)
                 (A) (A) (A) (A) (A) (A) (A) (A) (A) (A) (A) (A)
                 (A) (A) (A) (A) (A) (A) (A) (A) (A) (A) (A) (A)
                 (A) (A) (A) (A) (A) (A) (A) (A) (A) (A) (A) (A)
                 (A) (A) (A) (A) (A) (A) (A) (A) (A) (A) (A) (A)
                 (A) (A) (A) (A) (A) (A) (A) (A) (A) (A) (A) (A)
                 (A) (A) (A) (A) (A) (A) (A) (A) (A) (A) (A) (A)
                 (A) (A) (A) (A) (A) (A) (A) (A) (A) (A) (A) (A)
                 (A) (A) (A) (A) (A) (A) (A) (A) (A) (A) (A) (A)
                 (A) (A) (A) (A) (A) (A) (A) (A) (A) (A) (A) (A)
                 (A) (A) (A) (A) (A) (A) (A) (A) (A) (A) (A) (A)
                 (A) (A) (A) (A) (A) (A) (A) (A) (A) (A) (A) (A)
                 (A) (A) (A) (A) (A) (A) (A) (A) (A) (A) (A) (A)
                 (A) (A) (A) (A) (A) (A) (A) (A) (A) (A) (A) (A)
                 (A) (A) (A) (A) (A) (A) (A) (A) (A) (A) (A) (A)
                 (A) (A) (A) (A) (A) (A) (A) (A) (A) (A) (A) (A)
                 (A) (A) (A) (A) (A) (A) (A) (A) (A) (A) (A) (A)
                 (A) (A) (A) (A) (A) (A) (A) (A) (A) (A) (A) (A)
                 (A) (A) (A) (A) (A) (A) (A) (A) (A) (A) (A) (A)
                 (A) (A) (A) (A) (A) (A) (A) (A) (A) (A) (A) (A)
                 (A) (A) (A) (A) (A) (A) (A) (A) (A) (A) (A) (A)
                 (A) (A) (A) (A) (A) (A) (A) (A) (A) (A) (A) (A)
                 (A) (A) (A) (A) (A) (A) (A) (A) (A) (A) (A) (A)
                 (A) (A) (A) (A) (A) (A)
 The electronic state is 1-A.
 Alpha  occ. eigenvalues --  -19.14233 -19.10438 -19.10414 -19.08818 -19.08745
 Alpha  occ. eigenvalues --  -19.08622 -19.08503 -19.08258 -19.08115 -14.35196
 Alpha  occ. eigenvalues --  -14.34391 -14.32120 -14.31981 -14.31896 -10.29660
 Alpha  occ. eigenvalues --  -10.26444 -10.25765 -10.25637 -10.25451 -10.23504
 Alpha  occ. eigenvalues --  -10.20450 -10.20300 -10.19861 -10.19249 -10.18521
 Alpha  occ. eigenvalues --  -10.18255 -10.17968 -10.16796 -10.15997 -10.15749
 Alpha  occ. eigenvalues --  -10.15731 -10.15233 -10.15045 -10.14973 -10.14876
 Alpha  occ. eigenvalues --   -1.05110  -1.02183  -1.00643  -1.00236  -1.00069
 Alpha  occ. eigenvalues --   -0.99998  -0.96760  -0.96222  -0.95101  -0.93104
 Alpha  occ. eigenvalues --   -0.88341  -0.88092  -0.88030  -0.86497  -0.76824
 Alpha  occ. eigenvalues --   -0.73896  -0.73832  -0.72190  -0.71778  -0.71435
 Alpha  occ. eigenvalues --   -0.71029  -0.66591  -0.65884  -0.65221  -0.64832
 Alpha  occ. eigenvalues --   -0.61839  -0.61514  -0.60266  -0.58972  -0.57333
 Alpha  occ. eigenvalues --   -0.54842  -0.54682  -0.54441  -0.53099  -0.52382
 Alpha  occ. eigenvalues --   -0.49947  -0.48881  -0.47854  -0.47194  -0.47037
 Alpha  occ. eigenvalues --   -0.46431  -0.46307  -0.45147  -0.44327  -0.44155
 Alpha  occ. eigenvalues --   -0.43814  -0.43364  -0.43338  -0.43046  -0.42958
 Alpha  occ. eigenvalues --   -0.42651  -0.42614  -0.42533  -0.42249  -0.41410
 Alpha  occ. eigenvalues --   -0.41207  -0.40933  -0.40398  -0.39567  -0.39269
 Alpha  occ. eigenvalues --   -0.38853  -0.38675  -0.38557  -0.38268  -0.37731
 Alpha  occ. eigenvalues --   -0.37475  -0.37432  -0.36847  -0.36435  -0.36045
 Alpha  occ. eigenvalues --   -0.35963  -0.35891  -0.35647  -0.35526  -0.35377
 Alpha  occ. eigenvalues --   -0.35210  -0.34841  -0.34653  -0.34047  -0.33265
 Alpha  occ. eigenvalues --   -0.33093  -0.32401  -0.32265  -0.32225  -0.32029
 Alpha  occ. eigenvalues --   -0.31478  -0.31148  -0.30361  -0.27952  -0.26548
 Alpha  occ. eigenvalues --   -0.26072  -0.24781  -0.24646  -0.23844  -0.23541
 Alpha  occ. eigenvalues --   -0.23447  -0.23211  -0.22627  -0.22554  -0.22224
 Alpha  occ. eigenvalues --   -0.22015  -0.21995  -0.21828  -0.21275
 Alpha virt. eigenvalues --    0.03749   0.05321   0.05801   0.05913   0.06178
 Alpha virt. eigenvalues --    0.06480   0.08479   0.10389   0.10562   0.11997
 Alpha virt. eigenvalues --    0.12877   0.13323   0.13717   0.14003   0.14636
 Alpha virt. eigenvalues --    0.14676   0.15457   0.15809   0.16309   0.16691
 Alpha virt. eigenvalues --    0.17110   0.17507   0.17862   0.17985   0.18229
 Alpha virt. eigenvalues --    0.18345   0.18694   0.19031   0.19251   0.19298
 Alpha virt. eigenvalues --    0.19519   0.19866   0.20089   0.20134   0.20347
 Alpha virt. eigenvalues --    0.20778   0.20954   0.21072   0.21166   0.21449
 Alpha virt. eigenvalues --    0.21688   0.21901   0.22052   0.22346   0.22385
 Alpha virt. eigenvalues --    0.22709   0.22849   0.23401   0.23619   0.24185
 Alpha virt. eigenvalues --    0.25007   0.25806   0.26030   0.26432   0.26675
 Alpha virt. eigenvalues --    0.27087   0.27282   0.27859   0.28265   0.29210
 Alpha virt. eigenvalues --    0.29426   0.29527   0.29995   0.30324   0.30843
 Alpha virt. eigenvalues --    0.31257   0.31724   0.34400   0.34729   0.35046
 Alpha virt. eigenvalues --    0.36628   0.38585   0.39950   0.40463   0.40634
 Alpha virt. eigenvalues --    0.41533   0.44866   0.45229   0.46416   0.47566
 Alpha virt. eigenvalues --    0.49466   0.50452   0.50822   0.52415   0.52764
 Alpha virt. eigenvalues --    0.53118   0.53816   0.54130   0.54696   0.55190
 Alpha virt. eigenvalues --    0.55481   0.55908   0.56065   0.56298   0.56707
 Alpha virt. eigenvalues --    0.57047   0.57416   0.57804   0.57985   0.58531
 Alpha virt. eigenvalues --    0.58816   0.58939   0.59671   0.59931   0.60446
 Alpha virt. eigenvalues --    0.60749   0.61067   0.61572   0.61795   0.62398
 Alpha virt. eigenvalues --    0.62628   0.63266   0.63654   0.63826   0.64643
 Alpha virt. eigenvalues --    0.65037   0.65323   0.66071   0.66315   0.66745
 Alpha virt. eigenvalues --    0.67083   0.67875   0.68677   0.69298   0.69328
 Alpha virt. eigenvalues --    0.69755   0.70020   0.70636   0.71747   0.72246
 Alpha virt. eigenvalues --    0.73046   0.73722   0.74113   0.74959   0.75530
 Alpha virt. eigenvalues --    0.76139   0.76847   0.77003   0.77597   0.78396
 Alpha virt. eigenvalues --    0.78984   0.79187   0.79941   0.80345   0.80666
 Alpha virt. eigenvalues --    0.80953   0.81259   0.81448   0.81867   0.82463
 Alpha virt. eigenvalues --    0.82950   0.83001   0.83331   0.83535   0.84816
 Alpha virt. eigenvalues --    0.85298   0.85840   0.86528   0.86635   0.86829
 Alpha virt. eigenvalues --    0.87021   0.87288   0.87796   0.88235   0.88431
 Alpha virt. eigenvalues --    0.88870   0.89311   0.89650   0.90248   0.90414
 Alpha virt. eigenvalues --    0.90706   0.91242   0.91369   0.91547   0.91702
 Alpha virt. eigenvalues --    0.92041   0.92527   0.92970   0.93441   0.93849
 Alpha virt. eigenvalues --    0.93968   0.94448   0.94918   0.95192   0.95467
 Alpha virt. eigenvalues --    0.95661   0.96295   0.96449   0.96689   0.96833
 Alpha virt. eigenvalues --    0.97716   0.97789   0.98630   0.99266   0.99946
 Alpha virt. eigenvalues --    1.00189   1.01057   1.02023   1.02309   1.03236
 Alpha virt. eigenvalues --    1.03560   1.04653   1.04766   1.05316   1.06317
 Alpha virt. eigenvalues --    1.06570   1.06927   1.08275   1.08727   1.08842
 Alpha virt. eigenvalues --    1.10587   1.11088   1.11720   1.12172   1.13168
 Alpha virt. eigenvalues --    1.13578   1.14593   1.15193   1.15721   1.16721
 Alpha virt. eigenvalues --    1.17440   1.18870   1.19018   1.20645   1.21381
 Alpha virt. eigenvalues --    1.22266   1.23561   1.24310   1.24487   1.25004
 Alpha virt. eigenvalues --    1.26066   1.26581   1.27171   1.27750   1.29348
 Alpha virt. eigenvalues --    1.29656   1.30720   1.31878   1.32478   1.32828
 Alpha virt. eigenvalues --    1.33029   1.33154   1.33533   1.34555   1.35234
 Alpha virt. eigenvalues --    1.35307   1.35934   1.36673   1.38225   1.38610
 Alpha virt. eigenvalues --    1.40027   1.40304   1.40718   1.41178   1.42240
 Alpha virt. eigenvalues --    1.42259   1.42638   1.42831   1.43533   1.45166
 Alpha virt. eigenvalues --    1.46022   1.47297   1.47652   1.47898   1.47978
 Alpha virt. eigenvalues --    1.48904   1.51436   1.53520   1.54856   1.55495
 Alpha virt. eigenvalues --    1.56178   1.56674   1.57332   1.57999   1.58021
 Alpha virt. eigenvalues --    1.59195   1.60458   1.60881   1.62001   1.62684
 Alpha virt. eigenvalues --    1.64242   1.64640   1.65980   1.67228   1.67686
 Alpha virt. eigenvalues --    1.67939   1.68539   1.69224   1.69691   1.69970
 Alpha virt. eigenvalues --    1.72032   1.72563   1.72729   1.73666   1.74941
 Alpha virt. eigenvalues --    1.75018   1.75248   1.75401   1.76038   1.77654
 Alpha virt. eigenvalues --    1.78917   1.79298   1.80948   1.81705   1.81840
 Alpha virt. eigenvalues --    1.82568   1.82939   1.83268   1.83445   1.83669
 Alpha virt. eigenvalues --    1.84526   1.84834   1.84873   1.85865   1.86361
 Alpha virt. eigenvalues --    1.87770   1.88037   1.88747   1.88911   1.89249
 Alpha virt. eigenvalues --    1.89721   1.90074   1.90862   1.91036   1.91267
 Alpha virt. eigenvalues --    1.91658   1.92317   1.92560   1.92715   1.93351
 Alpha virt. eigenvalues --    1.93459   1.94779   1.95734   1.96174   1.96840
 Alpha virt. eigenvalues --    1.97793   1.98071   1.98623   1.99743   2.00199
 Alpha virt. eigenvalues --    2.01198   2.01903   2.02261   2.04225   2.04756
 Alpha virt. eigenvalues --    2.04847   2.05278   2.05853   2.05935   2.06156
 Alpha virt. eigenvalues --    2.06359   2.06777   2.06872   2.07092   2.07379
 Alpha virt. eigenvalues --    2.07663   2.07902   2.08721   2.08868   2.09055
 Alpha virt. eigenvalues --    2.09569   2.09910   2.10195   2.10321   2.10787
 Alpha virt. eigenvalues --    2.11064   2.11548   2.11950   2.12173   2.12688
 Alpha virt. eigenvalues --    2.12782   2.13137   2.13467   2.14317   2.14640
 Alpha virt. eigenvalues --    2.15006   2.15342   2.15622   2.16118   2.16400
 Alpha virt. eigenvalues --    2.16950   2.17076   2.18432   2.19174   2.19683
 Alpha virt. eigenvalues --    2.20560   2.20671   2.21381   2.21865   2.22421
 Alpha virt. eigenvalues --    2.23202   2.23785   2.24561   2.26090   2.26655
 Alpha virt. eigenvalues --    2.26761   2.27190   2.28508   2.28942   2.29953
 Alpha virt. eigenvalues --    2.30833   2.31063   2.31485   2.32142   2.32944
 Alpha virt. eigenvalues --    2.33338   2.33839   2.34504   2.34823   2.35780
 Alpha virt. eigenvalues --    2.36873   2.37649   2.38195   2.39284   2.40104
 Alpha virt. eigenvalues --    2.41557   2.41691   2.42594   2.43124   2.43798
 Alpha virt. eigenvalues --    2.44088   2.45137   2.45752   2.45841   2.46718
 Alpha virt. eigenvalues --    2.47160   2.47762   2.48720   2.49717   2.50730
 Alpha virt. eigenvalues --    2.51180   2.51652   2.52208   2.52932   2.53785
 Alpha virt. eigenvalues --    2.53968   2.55128   2.56024   2.57233   2.57473
 Alpha virt. eigenvalues --    2.58165   2.59012   2.59141   2.60788   2.61117
 Alpha virt. eigenvalues --    2.61684   2.61924   2.62824   2.63194   2.64729
 Alpha virt. eigenvalues --    2.64820   2.65651   2.65851   2.66912   2.67074
 Alpha virt. eigenvalues --    2.67712   2.68638   2.68785   2.68919   2.69085
 Alpha virt. eigenvalues --    2.69565   2.70059   2.71300   2.71617   2.71860
 Alpha virt. eigenvalues --    2.72077   2.72402   2.72874   2.73681   2.73726
 Alpha virt. eigenvalues --    2.73954   2.74102   2.74515   2.75008   2.76404
 Alpha virt. eigenvalues --    2.76514   2.77232   2.78633   2.80301   2.82430
 Alpha virt. eigenvalues --    2.83262   2.84707   2.85338   2.85499   2.86131
 Alpha virt. eigenvalues --    2.86467   2.86750   2.87352   2.87386   2.87926
 Alpha virt. eigenvalues --    2.88127   2.88383   2.89269   2.90084   2.90613
 Alpha virt. eigenvalues --    2.90787   2.90958   2.91033   2.91548   2.91620
 Alpha virt. eigenvalues --    2.92168   2.92680   2.93166   2.93478   2.94063
 Alpha virt. eigenvalues --    2.95613   2.96332   2.96517   2.97262   2.98211
 Alpha virt. eigenvalues --    3.00989   3.02255   3.02870   3.03418   3.05139
 Alpha virt. eigenvalues --    3.08101   3.09403   3.09451   3.11801   3.11927
 Alpha virt. eigenvalues --    3.12870   3.15527   3.16502   3.17012   3.17900
 Alpha virt. eigenvalues --    3.18204   3.23459   3.23644   3.23969   3.24441
 Alpha virt. eigenvalues --    3.24923   3.25412   3.26279   3.26711   3.27241
 Alpha virt. eigenvalues --    3.28112   3.32946   3.33763   3.34329   3.36915
 Alpha virt. eigenvalues --    3.39816   3.41809   3.42624   3.43532   3.44114
 Alpha virt. eigenvalues --    3.44613   3.45037   3.45786   3.46138   3.46254
 Alpha virt. eigenvalues --    3.46721   3.47057   3.47791   3.47986   3.48258
 Alpha virt. eigenvalues --    3.48663   3.49131   3.49740   3.50050   3.50493
 Alpha virt. eigenvalues --    3.50814   3.52051   3.56486   3.56936   3.58972
 Alpha virt. eigenvalues --    3.61277   3.64376   3.65543   3.66310   3.72059
 Alpha virt. eigenvalues --    3.78761   3.88294   4.06415   4.08633   4.08979
 Alpha virt. eigenvalues --    4.12059   4.13943   4.14490   4.18183   4.19769
 Alpha virt. eigenvalues --    4.20216   4.23524   4.24893   4.25152   4.30019
 Alpha virt. eigenvalues --    4.30941   4.32578   4.36411   4.37819   4.39075
 Alpha virt. eigenvalues --    4.44691   4.48901   4.49855   4.51015   4.52419
 Alpha virt. eigenvalues --    4.53518   4.57460   4.61195   4.63687   4.65911
 Alpha virt. eigenvalues --    4.67348   4.68893   4.70177   4.71194   4.78418
 Alpha virt. eigenvalues --    4.79477
          Condensed to atoms (all electrons):
 Mulliken charges:
               1
     1  C    0.575073
     2  C   -0.264214
     3  N   -0.549794
     4  C    0.039305
     5  H    0.129046
     6  H    0.125022
     7  O   -0.616773
     8  C   -0.182305
     9  H    0.318530
    10  H    0.081888
    11  O   -0.652368
    12  H    0.105282
    13  H    0.127327
    14  H    0.124909
    15  H    0.119764
    16  C    0.715849
    17  C   -0.346194
    18  O   -0.509767
    19  O   -0.644777
    20  H    0.120829
    21  H    0.119581
    22  H    0.122971
    23  C   -0.093431
    24  H    0.118702
    25  H    0.111712
    26  H    0.119722
    27  N   -0.548941
    28  C    0.281862
    29  C   -0.000994
    30  N   -0.540635
    31  H    0.169667
    32  C    0.263429
    33  H    0.129345
    34  C   -0.247553
    35  C   -0.341654
    36  H    0.109912
    37  H    0.126301
    38  H    0.108875
    39  H    0.105180
    40  H    0.124676
    41  C   -0.414122
    42  C    0.554952
    43  H    0.131325
    44  H    0.136971
    45  H    0.140048
    46  N   -0.537391
    47  O   -0.606036
    48  C   -0.190098
    49  H    0.317562
    50  H    0.129857
    51  H    0.117059
    52  H    0.128299
    53  C    0.596648
    54  C   -0.261602
    55  O   -0.640594
    56  O   -0.598415
    57  C   -0.327055
    58  H    0.126849
    59  H    0.117222
    60  H    0.093483
    61  H    0.112855
    62  H    0.119642
    63  N   -0.539254
    64  C   -0.188853
    65  C    0.539942
    66  H    0.304182
    67  H    0.124173
    68  H    0.121011
    69  H    0.133381
    70  C   -0.408381
    71  O   -0.589477
    72  H    0.139901
    73  H    0.141310
    74  H    0.120472
    75  O   -0.697991
    76  H    0.321426
    77  H    0.356343
    78  H    0.374466
    79  H    0.444532
 Sum of Mulliken charges =  -1.00000
 Mulliken charges with hydrogens summed into heavy atoms:
               1
     1  C    0.575073
     2  C   -0.010146
     3  N   -0.231264
     4  C    0.226475
     7  O   -0.616773
     8  C    0.189696
    11  O   -0.652368
    16  C    0.715849
    17  C    0.017188
    18  O   -0.509767
    19  O   -0.644777
    23  C    0.256705
    27  N   -0.104409
    28  C    0.451529
    29  C    0.128352
    30  N   -0.166169
    32  C    0.263429
    34  C   -0.011340
    35  C   -0.002923
    41  C   -0.005777
    42  C    0.554952
    46  N   -0.219829
    47  O   -0.606036
    48  C    0.185118
    53  C    0.596648
    54  C   -0.017532
    55  O   -0.640594
    56  O   -0.598415
    57  C   -0.001075
    63  N   -0.235071
    64  C    0.189712
    65  C    0.539942
    70  C   -0.006699
    71  O   -0.589477
    75  O   -0.020223
 Electronic spatial extent (au):  <R**2>=          28341.8585
 Charge=             -1.0000 electrons
 Dipole moment (field-independent basis, Debye):
    X=              1.7084    Y=              3.8607    Z=              6.6022  Tot=              7.8366
 Quadrupole moment (field-independent basis, Debye-Ang):
   XX=           -371.2722   YY=           -290.4051   ZZ=           -228.5027
   XY=              3.2208   XZ=             -4.2084   YZ=             -1.1929
 Traceless Quadrupole moment (field-independent basis, Debye-Ang):
   XX=            -74.5455   YY=              6.3215   ZZ=             68.2240
   XY=              3.2208   XZ=             -4.2084   YZ=             -1.1929
 Octapole moment (field-independent basis, Debye-Ang**2):
  XXX=            325.6663  YYY=            -21.7103  ZZZ=             70.8385  XYY=            131.2439
  XXY=            350.8816  XXZ=             10.2600  XZZ=            -39.7117  YZZ=             11.9676
  YYZ=            136.1251  XYZ=            -93.3759
 Hexadecapole moment (field-independent basis, Debye-Ang**3):
 XXXX=         -34259.7131 YYYY=          -6941.6434 ZZZZ=          -3217.5872 XXXY=          -1833.1407
 XXXZ=           -186.0179 YYYX=            253.7022 YYYZ=            113.6897 ZZZX=             52.4254
 ZZZY=           -142.0372 XXYY=          -7890.8577 XXZZ=          -5348.1475 YYZZ=          -1853.4412
 XXYZ=            141.5886 YYXZ=           -191.5286 ZZXY=            372.4784
 N-N= 4.054476920547D+03 E-N=-1.228447871199D+04  KE= 1.761706849653D+03
 No NMR shielding tensors so no spin-rotation constants.
 Leave Link  601 at Tue Sep  1 13:51:29 2020, MaxMem=  2147483648 cpu:        10.2
 (Enter /global/apps/Gaussian/09.d01/l9999.exe)
 1\1\GINC-C30-2\SP\RB3LYP\6-31G(d,p)\C21H44N5O9(1-)\BENTESIRINBARGE\01-
 Sep-2020\0\\#p b3lyp/6-31g(d,p) scrf=(read,smd) empiricaldispersion=gd
 3\\Title Card Required\\-1,1\C,0,-3.804419,3.404113,-1.21644\C,0,-2.58
 2193,3.378651,-0.297252\N,0,-4.741142,2.434232,-1.082251\C,0,-2.37006,
 2.25559,0.713719\H,0,-1.706333,3.439796,-0.953004\H,0,-2.620657,4.3392
 86,0.233808\O,0,-3.930264,4.326253,-2.025525\C,0,-5.932136,2.496553,-1
 .91099\H,0,-4.601094,1.630788,-0.463411\H,0,-1.615946,2.585414,1.44764
 3\O,0,-1.918433,1.070929,0.094008\H,0,-3.29314,2.049599,1.271846\H,0,-
 5.671973,2.523411,-2.974743\H,0,-6.514024,3.400195,-1.696505\H,0,-6.54
 7161,1.616705,-1.711209\C,0,-3.080677,-0.314774,0.155159\C,0,-2.946921
 ,-0.757613,-1.285601\O,0,-2.360648,-1.197742,0.967098\O,0,-4.173007,0.
 151187,0.591401\H,0,-1.91392,-1.011934,-1.527314\H,0,-3.584388,-1.6353
 61,-1.434296\H,0,-3.290038,0.050394,-1.931845\C,0,-2.477891,-0.94732,2
 .363231\H,0,-1.950246,-1.761347,2.865661\H,0,-2.009745,0.009986,2.6262
 77\H,0,-3.523301,-0.924043,2.684461\N,0,0.419615,0.707571,0.815451\C,0
 ,1.362235,1.406701,0.185263\C,0,1.045391,0.025287,1.838464\N,0,2.55688
 8,1.201251,0.752305\H,0,1.188078,2.047547,-0.6653\C,0,2.388941,0.32495
 3,1.80803\H,0,0.497876,-0.626386,2.50064\C,0,3.532952,-0.156075,2.6492
 76\C,0,4.361827,0.976247,3.285533\H,0,3.123225,-0.80625,3.430724\H,0,4
 .19683,-0.781626,2.041709\H,0,5.210356,0.557182,3.835029\H,0,3.756455,
 1.566463,3.982464\H,0,4.748057,1.652526,2.518575\C,0,-7.465869,-0.8762
 28,-0.163904\C,0,-6.926927,-2.256598,0.200673\H,0,-6.750497,-0.073745,
 0.028825\H,0,-8.384926,-0.692941,0.40038\H,0,-7.732649,-0.877788,-1.22
 5286\N,0,-5.660929,-2.244572,0.681838\O,0,-7.596765,-3.278811,0.051481
 \C,0,-4.945644,-3.457871,1.014426\H,0,-5.167738,-1.353076,0.749797\H,0
 ,-5.251562,-4.261174,0.338646\H,0,-5.152299,-3.792152,2.040733\H,0,-3.
 874143,-3.271402,0.914384\C,0,5.65225,1.397497,-0.120522\C,0,7.123235,
 1.82411,-0.122184\O,0,4.806923,2.307484,0.139917\O,0,5.371992,0.186557
 ,-0.33787\C,0,8.071513,0.798973,-0.737024\H,0,7.392178,2.02162,0.92444
 5\H,0,7.185,2.792895,-0.630119\H,0,9.111816,1.139842,-0.685868\H,0,7.8
 24022,0.617857,-1.787729\H,0,7.994911,-0.16131,-0.220635\N,0,3.549669,
 -1.773618,-1.372002\C,0,2.106002,-1.864823,-1.23207\C,0,4.208829,-2.54
 2062,-2.294568\H,0,4.024376,-0.945591,-1.00556\H,0,1.814783,-1.573993,
 -0.220879\H,0,1.576488,-1.219024,-1.945876\H,0,1.798697,-2.894454,-1.4
 21612\C,0,5.704649,-2.274127,-2.39355\O,0,3.652513,-3.41942,-2.952434\
 H,0,5.922057,-1.203058,-2.393678\H,0,6.207884,-2.690377,-1.514913\H,0,
 6.084471,-2.750757,-3.297751\O,0,5.759951,-2.224916,0.933957\H,0,4.958
 8,-2.536695,0.488655\H,0,5.852432,-1.332113,0.543488\H,0,3.502372,1.66
 083,0.441231\H,0,-0.732701,0.780924,0.49644\\Version=EM64L-G09RevD.01\
 State=1-A\HF=-1777.9106831\RMSD=8.664e-09\Dipole=0.6721525,1.5189043,2
 .5974934\Quadrupole=-55.4227839,4.699912,50.7228718,2.3945671,-3.12886
 18,-0.8869254\PG=C01 [X(C21H44N5O9)]\\@


 Cherishing children is the mark of a civilized society.
 -- Joan Ganz Cooney
 Job cpu time:       0 days  0 hours 42 minutes 24.5 seconds.
 File lengths (MBytes):  RWF=    828 Int=      0 D2E=      0 Chk=     22 Scr=      1
 Normal termination of Gaussian 09 at Tue Sep  1 13:51:29 2020.
