 Entering Gaussian System, Link 0=g09
 Initial command:
 /global/apps/Gaussian/09.d01/l1.exe "/global/work/bentesirinbarge/2566416/Gau-15157.inp" -scrdir="/global/work/bentesirinbarge/2566416/"
 Entering Link 1 = /global/apps/Gaussian/09.d01/l1.exe PID=     15158.
  
 Copyright (c) 1988,1990,1992,1993,1995,1998,2003,2009,2013,
            Gaussian, Inc.  All Rights Reserved.
  
 This is part of the Gaussian(R) 09 program.  It is based on
 the Gaussian(R) 03 system (copyright 2003, Gaussian, Inc.),
 the Gaussian(R) 98 system (copyright 1998, Gaussian, Inc.),
 the Gaussian(R) 94 system (copyright 1995, Gaussian, Inc.),
 the Gaussian 92(TM) system (copyright 1992, Gaussian, Inc.),
 the Gaussian 90(TM) system (copyright 1990, Gaussian, Inc.),
 the Gaussian 88(TM) system (copyright 1988, Gaussian, Inc.),
 the Gaussian 86(TM) system (copyright 1986, Carnegie Mellon
 University), and the Gaussian 82(TM) system (copyright 1983,
 Carnegie Mellon University). Gaussian is a federally registered
 trademark of Gaussian, Inc.
  
 This software contains proprietary and confidential information,
 including trade secrets, belonging to Gaussian, Inc.
  
 This software is provided under written license and may be
 used, copied, transmitted, or stored only in accord with that
 written license.
  
 The following legend is applicable only to US Government
 contracts under FAR:
  
                    RESTRICTED RIGHTS LEGEND
  
 Use, reproduction and disclosure by the US Government is
 subject to restrictions as set forth in subparagraphs (a)
 and (c) of the Commercial Computer Software - Restricted
 Rights clause in FAR 52.227-19.
  
 Gaussian, Inc.
 340 Quinnipiac St., Bldg. 40, Wallingford CT 06492
  
  
 ---------------------------------------------------------------
 Warning -- This program may not be used in any manner that
 competes with the business of Gaussian, Inc. or will provide
 assistance to any competitor of Gaussian, Inc.  The licensee
 of this program is prohibited from giving any competitor of
 Gaussian, Inc. access to this program.  By using this program,
 the user acknowledges that Gaussian, Inc. is engaged in the
 business of creating and licensing software in the field of
 computational chemistry and represents and warrants to the
 licensee that it is not a competitor of Gaussian, Inc. and that
 it will not use this program in any manner prohibited above.
 ---------------------------------------------------------------
  

 Cite this work as:
 Gaussian 09, Revision D.01,
 M. J. Frisch, G. W. Trucks, H. B. Schlegel, G. E. Scuseria, 
 M. A. Robb, J. R. Cheeseman, G. Scalmani, V. Barone, B. Mennucci, 
 G. A. Petersson, H. Nakatsuji, M. Caricato, X. Li, H. P. Hratchian, 
 A. F. Izmaylov, J. Bloino, G. Zheng, J. L. Sonnenberg, M. Hada, 
 M. Ehara, K. Toyota, R. Fukuda, J. Hasegawa, M. Ishida, T. Nakajima, 
 Y. Honda, O. Kitao, H. Nakai, T. Vreven, J. A. Montgomery, Jr., 
 J. E. Peralta, F. Ogliaro, M. Bearpark, J. J. Heyd, E. Brothers, 
 K. N. Kudin, V. N. Staroverov, T. Keith, R. Kobayashi, J. Normand, 
 K. Raghavachari, A. Rendell, J. C. Burant, S. S. Iyengar, J. Tomasi, 
 M. Cossi, N. Rega, J. M. Millam, M. Klene, J. E. Knox, J. B. Cross, 
 V. Bakken, C. Adamo, J. Jaramillo, R. Gomperts, R. E. Stratmann, 
 O. Yazyev, A. J. Austin, R. Cammi, C. Pomelli, J. W. Ochterski, 
 R. L. Martin, K. Morokuma, V. G. Zakrzewski, G. A. Voth, 
 P. Salvador, J. J. Dannenberg, S. Dapprich, A. D. Daniels, 
 O. Farkas, J. B. Foresman, J. V. Ortiz, J. Cioslowski, 
 and D. J. Fox, Gaussian, Inc., Wallingford CT, 2013.
 
 ******************************************
 Gaussian 09:  EM64L-G09RevD.01 24-Apr-2013
                27-Aug-2020 
 ******************************************
 %LindaWorkers=cib49-1
 %NProcShared=20
 Will use up to   20 processors via shared memory.
 %mem=16GB
 SetLPE:  input flags=""
 SetLPE:    new flags=" -nodelist 'cib49-1.ibnet'"
 Will use up to    1 processors via Linda.
 --------------------------------------------------------
 #p freq=noraman b3lyp/6-31g(d,p) empiricaldispersion=gd3
 --------------------------------------------------------
 1/10=4,30=1,38=1/1,3;
 2/12=2,17=6,18=5,40=1/2;
 3/5=1,6=6,7=101,11=2,16=1,25=1,30=1,71=2,74=-5,124=31,140=1/1,2,3;
 4//1;
 5/5=2,38=5,98=1/2;
 8/6=4,10=90,11=11/1;
 11/6=1,8=1,9=11,15=111,16=1/1,2,10;
 10/6=1/2;
 6/7=2,8=2,9=2,10=2,18=1,28=1/1;
 7/8=1,10=1,25=1/1,2,3,16;
 1/10=4,30=1/3;
 99//99;
 Leave Link    1 at Thu Aug 27 17:20:57 2020, MaxMem=  2147483648 cpu:         3.9
 (Enter /global/apps/Gaussian/09.d01/l101.exe)
 -------------------
 Title Card Required
 -------------------
 Symbolic Z-matrix:
 Charge = -1 Multiplicity = 1
 C                    -4.02138   3.70179  -0.97233 
 C                    -2.67958   3.81072  -0.24643 
 N                    -4.58513   2.46742  -1.06047 
 C                    -2.33943   2.76139   0.81667 
 H                    -1.89211   3.79542  -1.01115 
 H                    -2.66776   4.81238   0.1955 
 O                    -4.5456    4.69284  -1.4808 
 C                    -5.83429   2.28515  -1.78125 
 H                    -4.12583   1.66532  -0.64892 
 H                    -1.44351   3.08857   1.36116 
 O                    -2.11445   1.48601   0.23893 
 H                    -3.16073   2.70288   1.54897 
 H                    -5.78716   2.79104  -2.74994 
 H                    -6.68546   2.70352  -1.23051 
 H                    -5.99272   1.21471  -1.92718 
 C                    -3.07739  -0.72103  -1.2445 
 C                    -2.7251   -0.07451  -2.55465 
 O                    -2.00035  -1.25034  -0.66044 
 O                    -4.19899  -0.72463  -0.7535 
 H                    -1.94937  -0.63876  -3.07555 
 H                    -3.61606   0.03504  -3.17254 
 H                    -2.32794   0.91465  -2.30644 
 C                    -2.13447  -1.63055   0.7212 
 H                    -1.11965  -1.83258   1.06122 
 H                    -2.56503  -0.7984    1.28128 
 H                    -2.76029  -2.52191   0.81729 
 N                     0.45486   0.93432   1.02925 
 C                     1.44073   1.47697   0.32195 
 C                     1.08388   0.3334    2.10512 
 N                     2.65053   1.25347   0.87992 
 H                     1.31323   2.02934  -0.59824 
 C                     2.45071   0.52083   2.03131 
 H                     0.52386  -0.1926    2.86639 
 C                     3.58199   0.05491   2.90576 
 C                     4.4363    1.1863    3.52477 
 H                     3.15007  -0.56044   3.70413 
 H                     4.24034  -0.60811   2.32877 
 H                     5.24561   0.76104   4.12709 
 H                     3.82846   1.83439   4.1658 
 H                     4.87739   1.80139   2.73444 
 C                    -7.73944  -1.06557   0.24901 
 C                    -7.25287  -2.29214   1.00876 
 H                    -6.94015  -0.52621  -0.26596 
 H                    -8.23303  -0.39151   0.95488 
 H                    -8.49158  -1.38435  -0.47775 
 N                    -5.90633  -2.4982    0.97571 
 O                    -8.03999  -3.02662   1.60346 
 C                    -5.29379  -3.6277    1.64559 
 H                    -5.31028  -1.85986   0.457 
 H                    -6.09099  -4.22627   2.08858 
 H                    -4.6116   -3.30157   2.44064 
 H                    -4.72942  -4.24879   0.93926 
 C                     5.85555   1.26331  -0.06608 
 C                     7.34858   1.6138    0.03972 
 O                     5.0438    2.1787    0.24929 
 O                     5.54742   0.08619  -0.41577 
 C                     8.2641    0.75312  -0.83007 
 H                     7.61687   1.4959    1.09925 
 H                     7.45879   2.68026  -0.18241 
 H                     9.31948   1.00204  -0.66964 
 H                     8.04012   0.8939   -1.89303 
 H                     8.11422  -0.30605  -0.60635 
 N                     3.59945  -1.85119  -1.23922 
 C                     2.16218  -1.89744  -1.03492 
 C                     4.19332  -2.71313  -2.11913 
 H                     4.1165   -1.01743  -0.94362 
 H                     1.91048  -1.37317  -0.11007 
 H                     1.60604  -1.43158  -1.85982 
 H                     1.84004  -2.93913  -0.96979 
 C                     5.69524  -2.52608  -2.28299 
 O                     3.5725   -3.60928  -2.691 
 H                     5.95702  -1.47178  -2.40525 
 H                     6.197    -2.86046  -1.36844 
 H                     6.033    -3.11797  -3.13413 
 O                     5.72901  -2.20543   1.10317 
 H                     4.90158  -2.48983   0.68911 
 H                     5.88006  -1.35607   0.63855 
 H                     3.59747   1.60414   0.53279 
 H                    -1.19642   1.18764   0.50627 
 
 NAtoms=     79 NQM=       79 NQMF=       0 NMMI=      0 NMMIF=      0
                NMic=       0 NMicF=      0.
                    Isotopes and Nuclear Properties:
 (Nuclear quadrupole moments (NQMom) in fm**2, nuclear magnetic moments (NMagM)
  in nuclear magnetons)

  Atom         1           2           3           4           5           6           7           8           9          10
 IAtWgt=          12          12          14          12           1           1          16          12           1           1
 AtmWgt=  12.0000000  12.0000000  14.0030740  12.0000000   1.0078250   1.0078250  15.9949146  12.0000000   1.0078250   1.0078250
 NucSpn=           0           0           2           0           1           1           0           0           1           1
 AtZEff=   0.0000000   0.0000000   0.0000000   0.0000000   0.0000000   0.0000000   0.0000000   0.0000000   0.0000000   0.0000000
 NQMom=    0.0000000   0.0000000   2.0440000   0.0000000   0.0000000   0.0000000   0.0000000   0.0000000   0.0000000   0.0000000
 NMagM=    0.0000000   0.0000000   0.4037610   0.0000000   2.7928460   2.7928460   0.0000000   0.0000000   2.7928460   2.7928460
 AtZNuc=   6.0000000   6.0000000   7.0000000   6.0000000   1.0000000   1.0000000   8.0000000   6.0000000   1.0000000   1.0000000

  Atom        11          12          13          14          15          16          17          18          19          20
 IAtWgt=          16           1           1           1           1          12          12          16          16           1
 AtmWgt=  15.9949146   1.0078250   1.0078250   1.0078250   1.0078250  12.0000000  12.0000000  15.9949146  15.9949146   1.0078250
 NucSpn=           0           1           1           1           1           0           0           0           0           1
 AtZEff=   0.0000000   0.0000000   0.0000000   0.0000000   0.0000000   0.0000000   0.0000000   0.0000000   0.0000000   0.0000000
 NQMom=    0.0000000   0.0000000   0.0000000   0.0000000   0.0000000   0.0000000   0.0000000   0.0000000   0.0000000   0.0000000
 NMagM=    0.0000000   2.7928460   2.7928460   2.7928460   2.7928460   0.0000000   0.0000000   0.0000000   0.0000000   2.7928460
 AtZNuc=   8.0000000   1.0000000   1.0000000   1.0000000   1.0000000   6.0000000   6.0000000   8.0000000   8.0000000   1.0000000

  Atom        21          22          23          24          25          26          27          28          29          30
 IAtWgt=           1           1          12           1           1           1          14          12          12          14
 AtmWgt=   1.0078250   1.0078250  12.0000000   1.0078250   1.0078250   1.0078250  14.0030740  12.0000000  12.0000000  14.0030740
 NucSpn=           1           1           0           1           1           1           2           0           0           2
 AtZEff=   0.0000000   0.0000000   0.0000000   0.0000000   0.0000000   0.0000000   0.0000000   0.0000000   0.0000000   0.0000000
 NQMom=    0.0000000   0.0000000   0.0000000   0.0000000   0.0000000   0.0000000   2.0440000   0.0000000   0.0000000   2.0440000
 NMagM=    2.7928460   2.7928460   0.0000000   2.7928460   2.7928460   2.7928460   0.4037610   0.0000000   0.0000000   0.4037610
 AtZNuc=   1.0000000   1.0000000   6.0000000   1.0000000   1.0000000   1.0000000   7.0000000   6.0000000   6.0000000   7.0000000

  Atom        31          32          33          34          35          36          37          38          39          40
 IAtWgt=           1          12           1          12          12           1           1           1           1           1
 AtmWgt=   1.0078250  12.0000000   1.0078250  12.0000000  12.0000000   1.0078250   1.0078250   1.0078250   1.0078250   1.0078250
 NucSpn=           1           0           1           0           0           1           1           1           1           1
 AtZEff=   0.0000000   0.0000000   0.0000000   0.0000000   0.0000000   0.0000000   0.0000000   0.0000000   0.0000000   0.0000000
 NQMom=    0.0000000   0.0000000   0.0000000   0.0000000   0.0000000   0.0000000   0.0000000   0.0000000   0.0000000   0.0000000
 NMagM=    2.7928460   0.0000000   2.7928460   0.0000000   0.0000000   2.7928460   2.7928460   2.7928460   2.7928460   2.7928460
 AtZNuc=   1.0000000   6.0000000   1.0000000   6.0000000   6.0000000   1.0000000   1.0000000   1.0000000   1.0000000   1.0000000

  Atom        41          42          43          44          45          46          47          48          49          50
 IAtWgt=          12          12           1           1           1          14          16          12           1           1
 AtmWgt=  12.0000000  12.0000000   1.0078250   1.0078250   1.0078250  14.0030740  15.9949146  12.0000000   1.0078250   1.0078250
 NucSpn=           0           0           1           1           1           2           0           0           1           1
 AtZEff=   0.0000000   0.0000000   0.0000000   0.0000000   0.0000000   0.0000000   0.0000000   0.0000000   0.0000000   0.0000000
 NQMom=    0.0000000   0.0000000   0.0000000   0.0000000   0.0000000   2.0440000   0.0000000   0.0000000   0.0000000   0.0000000
 NMagM=    0.0000000   0.0000000   2.7928460   2.7928460   2.7928460   0.4037610   0.0000000   0.0000000   2.7928460   2.7928460
 AtZNuc=   6.0000000   6.0000000   1.0000000   1.0000000   1.0000000   7.0000000   8.0000000   6.0000000   1.0000000   1.0000000

  Atom        51          52          53          54          55          56          57          58          59          60
 IAtWgt=           1           1          12          12          16          16          12           1           1           1
 AtmWgt=   1.0078250   1.0078250  12.0000000  12.0000000  15.9949146  15.9949146  12.0000000   1.0078250   1.0078250   1.0078250
 NucSpn=           1           1           0           0           0           0           0           1           1           1
 AtZEff=   0.0000000   0.0000000   0.0000000   0.0000000   0.0000000   0.0000000   0.0000000   0.0000000   0.0000000   0.0000000
 NQMom=    0.0000000   0.0000000   0.0000000   0.0000000   0.0000000   0.0000000   0.0000000   0.0000000   0.0000000   0.0000000
 NMagM=    2.7928460   2.7928460   0.0000000   0.0000000   0.0000000   0.0000000   0.0000000   2.7928460   2.7928460   2.7928460
 AtZNuc=   1.0000000   1.0000000   6.0000000   6.0000000   8.0000000   8.0000000   6.0000000   1.0000000   1.0000000   1.0000000

  Atom        61          62          63          64          65          66          67          68          69          70
 IAtWgt=           1           1          14          12          12           1           1           1           1          12
 AtmWgt=   1.0078250   1.0078250  14.0030740  12.0000000  12.0000000   1.0078250   1.0078250   1.0078250   1.0078250  12.0000000
 NucSpn=           1           1           2           0           0           1           1           1           1           0
 AtZEff=   0.0000000   0.0000000   0.0000000   0.0000000   0.0000000   0.0000000   0.0000000   0.0000000   0.0000000   0.0000000
 NQMom=    0.0000000   0.0000000   2.0440000   0.0000000   0.0000000   0.0000000   0.0000000   0.0000000   0.0000000   0.0000000
 NMagM=    2.7928460   2.7928460   0.4037610   0.0000000   0.0000000   2.7928460   2.7928460   2.7928460   2.7928460   0.0000000
 AtZNuc=   1.0000000   1.0000000   7.0000000   6.0000000   6.0000000   1.0000000   1.0000000   1.0000000   1.0000000   6.0000000

  Atom        71          72          73          74          75          76          77          78          79
 IAtWgt=          16           1           1           1          16           1           1           1           1
 AtmWgt=  15.9949146   1.0078250   1.0078250   1.0078250  15.9949146   1.0078250   1.0078250   1.0078250   1.0078250
 NucSpn=           0           1           1           1           0           1           1           1           1
 AtZEff=   0.0000000   0.0000000   0.0000000   0.0000000   0.0000000   0.0000000   0.0000000   0.0000000   0.0000000
 NQMom=    0.0000000   0.0000000   0.0000000   0.0000000   0.0000000   0.0000000   0.0000000   0.0000000   0.0000000
 NMagM=    0.0000000   2.7928460   2.7928460   2.7928460   0.0000000   2.7928460   2.7928460   2.7928460   2.7928460
 AtZNuc=   8.0000000   1.0000000   1.0000000   1.0000000   8.0000000   1.0000000   1.0000000   1.0000000   1.0000000
 Leave Link  101 at Thu Aug 27 17:20:57 2020, MaxMem=  2147483648 cpu:         2.6
 (Enter /global/apps/Gaussian/09.d01/l103.exe)

 GradGradGradGradGradGradGradGradGradGradGradGradGradGradGradGradGradGrad
 Berny optimization.
 Initialization pass.
 Trust Radius=3.00D-01 FncErr=1.00D-07 GrdErr=1.00D-07
 Number of steps in this run=      2 maximum allowed number of steps=      2.
 GradGradGradGradGradGradGradGradGradGradGradGradGradGradGradGradGradGrad

 Leave Link  103 at Thu Aug 27 17:20:57 2020, MaxMem=  2147483648 cpu:         0.6
 (Enter /global/apps/Gaussian/09.d01/l202.exe)
 Stoichiometry    C21H44N5O9(1-)
 Framework group  C1[X(C21H44N5O9)]
 Deg. of freedom   231
 Full point group                 C1      NOp   1
 Largest Abelian subgroup         C1      NOp   1
 Largest concise Abelian subgroup C1      NOp   1
                         Standard orientation:                         
 ---------------------------------------------------------------------
 Center     Atomic      Atomic             Coordinates (Angstroms)
 Number     Number       Type             X           Y           Z
 ---------------------------------------------------------------------
      1          6           0       -4.021380    3.701793   -0.972326
      2          6           0       -2.679576    3.810718   -0.246430
      3          7           0       -4.585129    2.467418   -1.060470
      4          6           0       -2.339431    2.761389    0.816666
      5          1           0       -1.892109    3.795420   -1.011149
      6          1           0       -2.667762    4.812380    0.195497
      7          8           0       -4.545604    4.692843   -1.480802
      8          6           0       -5.834293    2.285146   -1.781246
      9          1           0       -4.125832    1.665321   -0.648922
     10          1           0       -1.443509    3.088567    1.361159
     11          8           0       -2.114455    1.486007    0.238930
     12          1           0       -3.160730    2.702875    1.548969
     13          1           0       -5.787158    2.791040   -2.749939
     14          1           0       -6.685462    2.703522   -1.230512
     15          1           0       -5.992720    1.214712   -1.927182
     16          6           0       -3.077388   -0.721033   -1.244498
     17          6           0       -2.725096   -0.074509   -2.554647
     18          8           0       -2.000349   -1.250342   -0.660441
     19          8           0       -4.198985   -0.724626   -0.753499
     20          1           0       -1.949374   -0.638760   -3.075547
     21          1           0       -3.616062    0.035035   -3.172539
     22          1           0       -2.327940    0.914654   -2.306435
     23          6           0       -2.134470   -1.630546    0.721197
     24          1           0       -1.119650   -1.832579    1.061224
     25          1           0       -2.565035   -0.798400    1.281281
     26          1           0       -2.760294   -2.521909    0.817292
     27          7           0        0.454861    0.934315    1.029250
     28          6           0        1.440730    1.476970    0.321949
     29          6           0        1.083876    0.333401    2.105120
     30          7           0        2.650529    1.253467    0.879921
     31          1           0        1.313232    2.029337   -0.598244
     32          6           0        2.450712    0.520827    2.031313
     33          1           0        0.523860   -0.192601    2.866387
     34          6           0        3.581988    0.054910    2.905757
     35          6           0        4.436302    1.186304    3.524775
     36          1           0        3.150074   -0.560442    3.704130
     37          1           0        4.240337   -0.608114    2.328766
     38          1           0        5.245606    0.761042    4.127092
     39          1           0        3.828456    1.834389    4.165799
     40          1           0        4.877388    1.801389    2.734444
     41          6           0       -7.739444   -1.065571    0.249007
     42          6           0       -7.252874   -2.292137    1.008760
     43          1           0       -6.940145   -0.526213   -0.265960
     44          1           0       -8.233029   -0.391508    0.954881
     45          1           0       -8.491576   -1.384348   -0.477749
     46          7           0       -5.906328   -2.498200    0.975708
     47          8           0       -8.039988   -3.026624    1.603461
     48          6           0       -5.293786   -3.627697    1.645594
     49          1           0       -5.310282   -1.859859    0.457004
     50          1           0       -6.090989   -4.226272    2.088577
     51          1           0       -4.611603   -3.301572    2.440635
     52          1           0       -4.729419   -4.248790    0.939257
     53          6           0        5.855546    1.263313   -0.066075
     54          6           0        7.348580    1.613795    0.039723
     55          8           0        5.043804    2.178700    0.249294
     56          8           0        5.547424    0.086185   -0.415765
     57          6           0        8.264096    0.753120   -0.830067
     58          1           0        7.616871    1.495897    1.099247
     59          1           0        7.458789    2.680260   -0.182407
     60          1           0        9.319479    1.002035   -0.669642
     61          1           0        8.040123    0.893895   -1.893025
     62          1           0        8.114224   -0.306048   -0.606348
     63          7           0        3.599445   -1.851192   -1.239215
     64          6           0        2.162179   -1.897442   -1.034918
     65          6           0        4.193315   -2.713134   -2.119129
     66          1           0        4.116504   -1.017430   -0.943616
     67          1           0        1.910482   -1.373172   -0.110070
     68          1           0        1.606041   -1.431575   -1.859820
     69          1           0        1.840039   -2.939130   -0.969788
     70          6           0        5.695244   -2.526081   -2.282989
     71          8           0        3.572497   -3.609283   -2.691000
     72          1           0        5.957017   -1.471778   -2.405254
     73          1           0        6.196998   -2.860464   -1.368441
     74          1           0        6.032999   -3.117968   -3.134128
     75          8           0        5.729014   -2.205434    1.103169
     76          1           0        4.901576   -2.489827    0.689111
     77          1           0        5.880055   -1.356072    0.638551
     78          1           0        3.597474    1.604136    0.532793
     79          1           0       -1.196424    1.187639    0.506273
 ---------------------------------------------------------------------
 Rotational constants (GHZ):      0.1388772      0.0403934      0.0365788
 Leave Link  202 at Thu Aug 27 17:20:57 2020, MaxMem=  2147483648 cpu:         1.3
 (Enter /global/apps/Gaussian/09.d01/l301.exe)
 Standard basis: 6-31G(d,p) (6D, 7F)
 Ernie: Thresh=  0.10000D-02 Tol=  0.10000D-05 Strict=F.
 There are   745 symmetry adapted cartesian basis functions of A   symmetry.
 There are   745 symmetry adapted basis functions of A   symmetry.
   745 basis functions,  1288 primitive gaussians,   745 cartesian basis functions
   139 alpha electrons      139 beta electrons
       nuclear repulsion energy      3934.1217900801 Hartrees.
 IExCor=  402 DFT=T Ex+Corr=B3LYP ExCW=0 ScaHFX=  0.200000
 ScaDFX=  0.800000  0.720000  1.000000  0.810000 ScalE2=  1.000000  1.000000
 IRadAn=      0 IRanWt=     -1 IRanGd=            0 ICorTp=0 IEmpDi=131
 NAtoms=   79 NActive=   79 NUniq=   79 SFac= 1.00D+00 NAtFMM=   60 NAOKFM=T Big=T
 Integral buffers will be    131072 words long.
 Raffenetti 2 integral format.
 Two-electron integral symmetry is turned on.
 R6Disp:  Grimme-D3 Dispersion energy=       -0.0884158490 Hartrees.
 Nuclear repulsion after empirical dispersion term =     3934.0333742311 Hartrees.
 Leave Link  301 at Thu Aug 27 17:20:58 2020, MaxMem=  2147483648 cpu:         3.9
 (Enter /global/apps/Gaussian/09.d01/l302.exe)
 NPDir=0 NMtPBC=     1 NCelOv=     1 NCel=       1 NClECP=     1 NCelD=      1
         NCelK=      1 NCelE2=     1 NClLst=     1 CellRange=     0.0.
 One-electron integrals computed using PRISM.
 NBasis=   745 RedAO= T EigKep=  1.17D-03  NBF=   745
 NBsUse=   745 1.00D-06 EigRej= -1.00D+00 NBFU=   745
 Precomputing XC quadrature grid using
 IXCGrd= 4 IRadAn=           0 IRanWt=          -1 IRanGd=           0 AccXCQ= 0.00D+00.
 Generated NRdTot=       0 NPtTot=           0 NUsed=           0 NTot=          32
 NSgBfM=   647   655   659   666   667 MxSgAt=    79 MxSgA2=    79.
 Leave Link  302 at Thu Aug 27 17:21:01 2020, MaxMem=  2147483648 cpu:        40.4
 (Enter /global/apps/Gaussian/09.d01/l303.exe)
 DipDrv:  MaxL=1.
 Leave Link  303 at Thu Aug 27 17:21:01 2020, MaxMem=  2147483648 cpu:         3.8
 (Enter /global/apps/Gaussian/09.d01/l401.exe)
 ExpMin= 1.61D-01 ExpMax= 5.48D+03 ExpMxC= 8.25D+02 IAcc=1 IRadAn=         1 AccDes= 0.00D+00
 Harris functional with IExCor=  402 and IRadAn=       1 diagonalized for initial guess.
 HarFok:  IExCor=  402 AccDes= 0.00D+00 IRadAn=         1 IDoV= 1 UseB2=F ITyADJ=14
 ICtDFT=  3500011 ScaDFX=  1.000000  1.000000  1.000000  1.000000
 FoFCou: FMM=F IPFlag=           0 FMFlag=      100000 FMFlg1=        2001
         NFxFlg=           0 DoJE=T BraDBF=F KetDBF=T FulRan=T
         wScrn=  0.000000 ICntrl=     500 IOpCl=  0 I1Cent=   200000004 NGrid=           0
         NMat0=    1 NMatS0=      1 NMatT0=    0 NMatD0=    1 NMtDS0=    0 NMtDT0=    0
 Petite list used in FoFCou.
 Harris En= -1778.14774787000    
 JPrj=0 DoOrth=F DoCkMO=F.
 Leave Link  401 at Thu Aug 27 17:21:05 2020, MaxMem=  2147483648 cpu:        53.0
 (Enter /global/apps/Gaussian/09.d01/l502.exe)
 Closed shell SCF:
 Using DIIS extrapolation, IDIIS=  1040.
 Integral symmetry usage will be decided dynamically.
 IVT=     1704170 IEndB=     1704170 NGot=  2147483648 MDV=  2146351889
 LenX=  2146351889 LenY=  2145796119
 Requested convergence on RMS density matrix=1.00D-08 within 128 cycles.
 Requested convergence on MAX density matrix=1.00D-06.
 Requested convergence on             energy=1.00D-06.
 No special actions if energy rises.
 Fock matrices will be formed incrementally for  20 cycles.
 Integral accuracy reduced to 1.0D-05 until final iterations.

 Cycle   1  Pass 0  IDiag  1:
 FoFJK:  IHMeth= 1 ICntrl=       0 DoSepK=F KAlg= 0 I1Cent=   0 FoldK=F
 IRaf= 640000000 NMat=   1 IRICut=       1 DoRegI=T DoRafI=F ISym2E= 0.
 FoFCou: FMM=T IPFlag=           0 FMFlag=      100000 FMFlg1=        2001
         NFxFlg=           0 DoJE=F BraDBF=F KetDBF=F FulRan=T
         wScrn=  0.000000 ICntrl=       0 IOpCl=  0 I1Cent=           0 NGrid=           0
         NMat0=    1 NMatS0=      1 NMatT0=    0 NMatD0=    1 NMtDS0=    0 NMtDT0=    0
 Symmetry not used in FoFCou.
 FMM levels:  10  Number of levels for PrismC:   9
 E= -1776.73063170202    
 DIIS: error= 2.74D-02 at cycle   1 NSaved=   1.
 NSaved= 1 IEnMin= 1 EnMin= -1776.73063170202     IErMin= 1 ErrMin= 2.74D-02
 ErrMax= 2.74D-02  0.00D+00 EMaxC= 1.00D-01 BMatC= 1.30D+00 BMatP= 1.30D+00
 IDIUse=3 WtCom= 7.26D-01 WtEn= 2.74D-01
 Coeff-Com:  0.100D+01
 Coeff-En:   0.100D+01
 Coeff:      0.100D+01
 Gap=     0.151 Goal=   None    Shift=    0.000
 GapD=    0.151 DampG=1.000 DampE=0.500 DampFc=0.5000 IDamp=-1.
 Damping current iteration by 5.00D-01
 RMSDP=3.46D-03 MaxDP=2.08D-01              OVMax= 2.92D-01

 Cycle   2  Pass 0  IDiag  1:
 RMSU=  1.72D-03    CP:  9.86D-01
 E= -1777.14402216611     Delta-E=       -0.413390464088 Rises=F Damp=T
 DIIS: error= 1.25D-02 at cycle   2 NSaved=   2.
 NSaved= 2 IEnMin= 2 EnMin= -1777.14402216611     IErMin= 2 ErrMin= 1.25D-02
 ErrMax= 1.25D-02  0.00D+00 EMaxC= 1.00D-01 BMatC= 1.35D-01 BMatP= 1.30D+00
 IDIUse=3 WtCom= 8.75D-01 WtEn= 1.25D-01
 Coeff-Com:  0.170D+00 0.830D+00
 Coeff-En:   0.256D+00 0.744D+00
 Coeff:      0.181D+00 0.819D+00
 Gap=     0.221 Goal=   None    Shift=    0.000
 RMSDP=9.35D-04 MaxDP=8.24D-02 DE=-4.13D-01 OVMax= 2.00D-01

 Cycle   3  Pass 0  IDiag  1:
 RMSU=  8.24D-04    CP:  9.79D-01  7.48D-01
 E= -1777.76508627194     Delta-E=       -0.621064105826 Rises=F Damp=F
 DIIS: error= 1.40D-02 at cycle   3 NSaved=   3.
 NSaved= 3 IEnMin= 3 EnMin= -1777.76508627194     IErMin= 2 ErrMin= 1.25D-02
 ErrMax= 1.40D-02  0.00D+00 EMaxC= 1.00D-01 BMatC= 1.37D-01 BMatP= 1.35D-01
 IDIUse=3 WtCom= 8.60D-01 WtEn= 1.40D-01
 Coeff-Com:  0.597D-01 0.500D+00 0.440D+00
 Coeff-En:   0.000D+00 0.000D+00 0.100D+01
 Coeff:      0.513D-01 0.430D+00 0.518D+00
 Gap=     0.201 Goal=   None    Shift=    0.000
 RMSDP=6.45D-04 MaxDP=5.27D-02 DE=-6.21D-01 OVMax= 1.08D-01

 Cycle   4  Pass 0  IDiag  1:
 RMSU=  3.41D-04    CP:  9.84D-01  8.43D-01  3.70D-01
 E= -1777.85399106973     Delta-E=       -0.088904797788 Rises=F Damp=F
 DIIS: error= 7.63D-03 at cycle   4 NSaved=   4.
 NSaved= 4 IEnMin= 4 EnMin= -1777.85399106973     IErMin= 4 ErrMin= 7.63D-03
 ErrMax= 7.63D-03  0.00D+00 EMaxC= 1.00D-01 BMatC= 3.45D-02 BMatP= 1.35D-01
 IDIUse=3 WtCom= 9.24D-01 WtEn= 7.63D-02
 Coeff-Com:  0.114D-01 0.871D-01 0.333D+00 0.568D+00
 Coeff-En:   0.000D+00 0.000D+00 0.232D+00 0.768D+00
 Coeff:      0.105D-01 0.804D-01 0.326D+00 0.583D+00
 Gap=     0.211 Goal=   None    Shift=    0.000
 RMSDP=2.57D-04 MaxDP=2.29D-02 DE=-8.89D-02 OVMax= 4.27D-02

 Cycle   5  Pass 0  IDiag  1:
 RMSU=  9.72D-05    CP:  9.83D-01  7.96D-01  5.73D-01  5.65D-01
 E= -1777.87973385762     Delta-E=       -0.025742787895 Rises=F Damp=F
 DIIS: error= 1.17D-03 at cycle   5 NSaved=   5.
 NSaved= 5 IEnMin= 5 EnMin= -1777.87973385762     IErMin= 5 ErrMin= 1.17D-03
 ErrMax= 1.17D-03  0.00D+00 EMaxC= 1.00D-01 BMatC= 2.24D-03 BMatP= 3.45D-02
 IDIUse=3 WtCom= 9.88D-01 WtEn= 1.17D-02
 Coeff-Com:  0.271D-02 0.102D-01 0.155D+00 0.348D+00 0.484D+00
 Coeff-En:   0.000D+00 0.000D+00 0.000D+00 0.000D+00 0.100D+01
 Coeff:      0.268D-02 0.101D-01 0.153D+00 0.344D+00 0.490D+00
 Gap=     0.201 Goal=   None    Shift=    0.000
 RMSDP=6.47D-05 MaxDP=5.37D-03 DE=-2.57D-02 OVMax= 9.68D-03

 Cycle   6  Pass 0  IDiag  1:
 RMSU=  2.58D-05    CP:  9.83D-01  8.04D-01  5.61D-01  6.43D-01  4.86D-01
 E= -1777.88148349977     Delta-E=       -0.001749642152 Rises=F Damp=F
 DIIS: error= 3.19D-04 at cycle   6 NSaved=   6.
 NSaved= 6 IEnMin= 6 EnMin= -1777.88148349977     IErMin= 6 ErrMin= 3.19D-04
 ErrMax= 3.19D-04  0.00D+00 EMaxC= 1.00D-01 BMatC= 1.06D-04 BMatP= 2.24D-03
 IDIUse=3 WtCom= 9.97D-01 WtEn= 3.19D-03
 Coeff-Com:  0.525D-03-0.194D-02 0.476D-01 0.117D+00 0.248D+00 0.589D+00
 Coeff-En:   0.000D+00 0.000D+00 0.000D+00 0.000D+00 0.000D+00 0.100D+01
 Coeff:      0.523D-03-0.193D-02 0.474D-01 0.117D+00 0.247D+00 0.590D+00
 Gap=     0.201 Goal=   None    Shift=    0.000
 RMSDP=1.55D-05 MaxDP=1.94D-03 DE=-1.75D-03 OVMax= 2.45D-03

 Cycle   7  Pass 0  IDiag  1:
 RMSU=  9.67D-06    CP:  9.83D-01  8.03D-01  5.63D-01  6.38D-01  5.43D-01
                    CP:  5.99D-01
 E= -1777.88155239632     Delta-E=       -0.000068896550 Rises=F Damp=F
 DIIS: error= 1.46D-04 at cycle   7 NSaved=   7.
 NSaved= 7 IEnMin= 7 EnMin= -1777.88155239632     IErMin= 7 ErrMin= 1.46D-04
 ErrMax= 1.46D-04  0.00D+00 EMaxC= 1.00D-01 BMatC= 2.23D-05 BMatP= 1.06D-04
 IDIUse=3 WtCom= 9.99D-01 WtEn= 1.46D-03
 Coeff-Com:  0.150D-03-0.208D-02 0.179D-01 0.459D-01 0.122D+00 0.385D+00
 Coeff-Com:  0.430D+00
 Coeff-En:   0.000D+00 0.000D+00 0.000D+00 0.000D+00 0.000D+00 0.115D+00
 Coeff-En:   0.885D+00
 Coeff:      0.150D-03-0.207D-02 0.179D-01 0.459D-01 0.122D+00 0.385D+00
 Coeff:      0.431D+00
 Gap=     0.201 Goal=   None    Shift=    0.000
 RMSDP=6.09D-06 MaxDP=6.90D-04 DE=-6.89D-05 OVMax= 1.21D-03

 Initial convergence to 1.0D-05 achieved.  Increase integral accuracy.
 Cycle   8  Pass 1  IDiag  1:
 E= -1777.88165229445     Delta-E=       -0.000099898122 Rises=F Damp=F
 DIIS: error= 6.07D-05 at cycle   1 NSaved=   1.
 NSaved= 1 IEnMin= 1 EnMin= -1777.88165229445     IErMin= 1 ErrMin= 6.07D-05
 ErrMax= 6.07D-05  0.00D+00 EMaxC= 1.00D-01 BMatC= 3.55D-06 BMatP= 3.55D-06
 IDIUse=1 WtCom= 1.00D+00 WtEn= 0.00D+00
 Coeff-Com:  0.100D+01
 Coeff:      0.100D+01
 Gap=     0.201 Goal=   None    Shift=    0.000
 RMSDP=6.09D-06 MaxDP=6.90D-04 DE=-9.99D-05 OVMax= 9.05D-04

 Cycle   9  Pass 1  IDiag  1:
 RMSU=  1.65D-05    CP:  1.00D+00
 E= -1777.88165100536     Delta-E=        0.000001289085 Rises=F Damp=F
 DIIS: error= 1.13D-04 at cycle   2 NSaved=   2.
 NSaved= 2 IEnMin= 1 EnMin= -1777.88165229445     IErMin= 1 ErrMin= 6.07D-05
 ErrMax= 1.13D-04  0.00D+00 EMaxC= 1.00D-01 BMatC= 6.00D-06 BMatP= 3.55D-06
 IDIUse=3 WtCom= 4.85D-01 WtEn= 5.15D-01
 Coeff-Com:  0.582D+00 0.418D+00
 Coeff-En:   0.595D+00 0.405D+00
 Coeff:      0.589D+00 0.411D+00
 Gap=     0.201 Goal=   None    Shift=    0.000
 RMSDP=3.75D-06 MaxDP=4.71D-04 DE= 1.29D-06 OVMax= 8.75D-04

 Cycle  10  Pass 1  IDiag  1:
 RMSU=  3.65D-06    CP:  1.00D+00  9.49D-01
 E= -1777.88165507338     Delta-E=       -0.000004068013 Rises=F Damp=F
 DIIS: error= 4.18D-05 at cycle   3 NSaved=   3.
 NSaved= 3 IEnMin= 3 EnMin= -1777.88165507338     IErMin= 3 ErrMin= 4.18D-05
 ErrMax= 4.18D-05  0.00D+00 EMaxC= 1.00D-01 BMatC= 7.75D-07 BMatP= 3.55D-06
 IDIUse=1 WtCom= 1.00D+00 WtEn= 0.00D+00
 Coeff-Com:  0.386D-01 0.262D+00 0.699D+00
 Coeff:      0.386D-01 0.262D+00 0.699D+00
 Gap=     0.201 Goal=   None    Shift=    0.000
 RMSDP=1.17D-06 MaxDP=1.35D-04 DE=-4.07D-06 OVMax= 2.75D-04

 Cycle  11  Pass 1  IDiag  1:
 RMSU=  6.31D-07    CP:  1.00D+00  9.71D-01  7.48D-01
 E= -1777.88165560874     Delta-E=       -0.000000535364 Rises=F Damp=F
 DIIS: error= 6.24D-06 at cycle   4 NSaved=   4.
 NSaved= 4 IEnMin= 4 EnMin= -1777.88165560874     IErMin= 4 ErrMin= 6.24D-06
 ErrMax= 6.24D-06  0.00D+00 EMaxC= 1.00D-01 BMatC= 6.40D-08 BMatP= 7.75D-07
 IDIUse=1 WtCom= 1.00D+00 WtEn= 0.00D+00
 Coeff-Com: -0.339D-02 0.134D+00 0.407D+00 0.462D+00
 Coeff:     -0.339D-02 0.134D+00 0.407D+00 0.462D+00
 Gap=     0.201 Goal=   None    Shift=    0.000
 RMSDP=3.47D-07 MaxDP=3.48D-05 DE=-5.35D-07 OVMax= 4.22D-05

 Cycle  12  Pass 1  IDiag  1:
 RMSU=  1.18D-07    CP:  1.00D+00  9.72D-01  7.59D-01  4.89D-01
 E= -1777.88165566381     Delta-E=       -0.000000055071 Rises=F Damp=F
 DIIS: error= 1.60D-06 at cycle   5 NSaved=   5.
 NSaved= 5 IEnMin= 5 EnMin= -1777.88165566381     IErMin= 5 ErrMin= 1.60D-06
 ErrMax= 1.60D-06  0.00D+00 EMaxC= 1.00D-01 BMatC= 2.18D-09 BMatP= 6.40D-08
 IDIUse=1 WtCom= 1.00D+00 WtEn= 0.00D+00
 Coeff-Com: -0.301D-02 0.723D-01 0.221D+00 0.273D+00 0.437D+00
 Coeff:     -0.301D-02 0.723D-01 0.221D+00 0.273D+00 0.437D+00
 Gap=     0.201 Goal=   None    Shift=    0.000
 RMSDP=6.07D-08 MaxDP=7.84D-06 DE=-5.51D-08 OVMax= 9.25D-06

 Cycle  13  Pass 1  IDiag  1:
 RMSU=  4.36D-08    CP:  1.00D+00  9.72D-01  7.57D-01  4.99D-01  6.55D-01
 E= -1777.88165566546     Delta-E=       -0.000000001652 Rises=F Damp=F
 DIIS: error= 3.91D-07 at cycle   6 NSaved=   6.
 NSaved= 6 IEnMin= 6 EnMin= -1777.88165566546     IErMin= 6 ErrMin= 3.91D-07
 ErrMax= 3.91D-07  0.00D+00 EMaxC= 1.00D-01 BMatC= 1.32D-10 BMatP= 2.18D-09
 IDIUse=1 WtCom= 1.00D+00 WtEn= 0.00D+00
 Coeff-Com: -0.132D-02 0.262D-01 0.803D-01 0.104D+00 0.240D+00 0.551D+00
 Coeff:     -0.132D-02 0.262D-01 0.803D-01 0.104D+00 0.240D+00 0.551D+00
 Gap=     0.201 Goal=   None    Shift=    0.000
 RMSDP=1.85D-08 MaxDP=2.17D-06 DE=-1.65D-09 OVMax= 3.44D-06

 Cycle  14  Pass 1  IDiag  1:
 RMSU=  1.55D-08    CP:  1.00D+00  9.72D-01  7.58D-01  4.98D-01  6.92D-01
                    CP:  7.92D-01
 E= -1777.88165566559     Delta-E=       -0.000000000125 Rises=F Damp=F
 DIIS: error= 1.75D-07 at cycle   7 NSaved=   7.
 NSaved= 7 IEnMin= 7 EnMin= -1777.88165566559     IErMin= 7 ErrMin= 1.75D-07
 ErrMax= 1.75D-07  0.00D+00 EMaxC= 1.00D-01 BMatC= 2.58D-11 BMatP= 1.32D-10
 IDIUse=1 WtCom= 1.00D+00 WtEn= 0.00D+00
 Coeff-Com: -0.449D-03 0.728D-02 0.223D-01 0.302D-01 0.930D-01 0.346D+00
 Coeff-Com:  0.502D+00
 Coeff:     -0.449D-03 0.728D-02 0.223D-01 0.302D-01 0.930D-01 0.346D+00
 Coeff:      0.502D+00
 Gap=     0.201 Goal=   None    Shift=    0.000
 RMSDP=6.97D-09 MaxDP=8.25D-07 DE=-1.25D-10 OVMax= 1.08D-06

 SCF Done:  E(RB3LYP) =  -1777.88165567     A.U. after   14 cycles
            NFock= 14  Conv=0.70D-08     -V/T= 2.0093
 KE= 1.761470517889D+03 PE=-1.204268651444D+04 EE= 4.569300966653D+03
 Leave Link  502 at Thu Aug 27 17:22:09 2020, MaxMem=  2147483648 cpu:      1233.1
 (Enter /global/apps/Gaussian/09.d01/l801.exe)
 DoSCS=F DFT=T ScalE2(SS,OS)=  1.000000  1.000000
 Range of M.O.s used for correlation:     1   745
 NBasis=   745 NAE=   139 NBE=   139 NFC=     0 NFV=     0
 NROrb=    745 NOA=   139 NOB=   139 NVA=   606 NVB=   606
 Leave Link  801 at Thu Aug 27 17:22:10 2020, MaxMem=  2147483648 cpu:        11.3
 (Enter /global/apps/Gaussian/09.d01/l1101.exe)
 Using compressed storage, NAtomX=    79.
 Will process     80 centers per pass.
 R6Disp: Adding Grimme-D3 dispersion energy 1st derivatives to the gradient.
 Leave Link 1101 at Thu Aug 27 17:22:19 2020, MaxMem=  2147483648 cpu:       168.7
 (Enter /global/apps/Gaussian/09.d01/l1102.exe)
 Symmetrizing basis deriv contribution to polar:
 IMax=3 JMax=2 DiffMx= 0.00D+00
 Leave Link 1102 at Thu Aug 27 17:22:20 2020, MaxMem=  2147483648 cpu:         3.7
 (Enter /global/apps/Gaussian/09.d01/l1110.exe)
 Forming Gx(P) for the SCF density, NAtomX=    79.
 Integral derivatives from FoFJK, PRISM(SPDF).
 Do as many integral derivatives as possible in FoFJK.
 G2DrvN: MDV=    2147482912.
 G2DrvN: will do    80 centers at a time, making    1 passes.
 Calling FoFCou, ICntrl=  3107 FMM=T I1Cent=   0 AccDes= 0.00D+00.
 FoFJK:  IHMeth= 1 ICntrl=    3107 DoSepK=F KAlg= 0 I1Cent=   0 FoldK=F
 IRaf=         0 NMat=   1 IRICut=       1 DoRegI=T DoRafI=F ISym2E= 0.
 FoFCou: FMM=T IPFlag=           0 FMFlag=      100000 FMFlg1=        2001
         NFxFlg=           0 DoJE=F BraDBF=F KetDBF=F FulRan=T
         wScrn=  0.000000 ICntrl=    3107 IOpCl=  0 I1Cent=           0 NGrid=           0
         NMat0=    1 NMatS0=      1 NMatT0=    0 NMatD0=    1 NMtDS0=    0 NMtDT0=    0
 Symmetry not used in FoFCou.
 FMM levels:  10  Number of levels for PrismC:   9
 End of G2Drv F.D. properties file   721 does not exist.
 End of G2Drv F.D. properties file   722 does not exist.
 End of G2Drv F.D. properties file   788 does not exist.
 Leave Link 1110 at Thu Aug 27 17:25:49 2020, MaxMem=  2147483648 cpu:      4162.4
 (Enter /global/apps/Gaussian/09.d01/l1002.exe)
 Minotr:  Closed shell wavefunction.
          IDoAtm=11111111111111111111111111111111111111111111111111
          IDoAtm=11111111111111111111111111111
          Direct CPHF calculation.
          Differentiating once with respect to electric field.
                with respect to dipole field.
          Differentiating once with respect to nuclear coordinates.
          Requested convergence is 1.0D-08 RMS, and 1.0D-07 maximum.
          Secondary convergence is 1.0D-12 RMS, and 1.0D-12 maximum.
          NewPWx=T KeepS1=F KeepF1=F KeepIn=T MapXYZ=F SortEE=F KeepMc=T.
          MDV=    2147482109 using IRadAn=       2.
 Generate precomputed XC quadrature information.
          Solving linear equations simultaneously, MaxMat=      72.
 FoF2E skips out because all densities are zero.
 CalDSu exits because no D1Ps are significant.
 FoFJK:  IHMeth= 1 ICntrl=       0 DoSepK=F KAlg= 0 I1Cent=   0 FoldK=F
 IRaf= 640000000 NMat=  72 IRICut=       1 DoRegI=T DoRafI=F ISym2E= 2.
 FoFCou: FMM=T IPFlag=           0 FMFlag=      100000 FMFlg1=        2001
         NFxFlg=           0 DoJE=F BraDBF=F KetDBF=F FulRan=T
         wScrn=  0.000000 ICntrl=       0 IOpCl=  0 I1Cent=           0 NGrid=           0
         NMat0=   72 NMatS0=     72 NMatT0=    0 NMatD0=   72 NMtDS0=    0 NMtDT0=    0
 Symmetry not used in FoFCou.
 FMM levels:  10  Number of levels for PrismC:   9
          There are   240 degrees of freedom in the 1st order CPHF.  IDoFFX=6 NUNeed=     3.
    240 vectors produced by pass  0 Test12= 8.42D-14 1.00D-09 XBig12= 2.38D+02 4.58D+00.
 AX will form    72 AO Fock derivatives at one time.
    237 vectors produced by pass  1 Test12= 8.42D-14 1.00D-09 XBig12= 5.38D+01 1.22D+00.
    237 vectors produced by pass  2 Test12= 8.42D-14 1.00D-09 XBig12= 3.42D-01 5.88D-02.
    237 vectors produced by pass  3 Test12= 8.42D-14 1.00D-09 XBig12= 8.41D-04 2.09D-03.
    237 vectors produced by pass  4 Test12= 8.42D-14 1.00D-09 XBig12= 1.23D-06 6.06D-05.
    158 vectors produced by pass  5 Test12= 8.42D-14 1.00D-09 XBig12= 9.84D-10 2.08D-06.
      8 vectors produced by pass  6 Test12= 8.42D-14 1.00D-09 XBig12= 6.22D-13 5.00D-08.
      2 vectors produced by pass  7 Test12= 8.42D-14 1.00D-09 XBig12= 5.29D-16 1.83D-09.
 InvSVY:  IOpt=1 It=  1 EMax= 3.02D-14
 Solved reduced A of dimension  1356 with   240 vectors.
 FullF1:  Do perturbations    1 to     3.
 Isotropic polarizability for W=    0.000000      301.91 Bohr**3.
 End of Minotr F.D. properties file   721 does not exist.
 End of Minotr F.D. properties file   722 does not exist.
 End of Minotr F.D. properties file   788 does not exist.
 Leave Link 1002 at Thu Aug 27 17:42:12 2020, MaxMem=  2147483648 cpu:     19566.8
 (Enter /global/apps/Gaussian/09.d01/l601.exe)
 Copying SCF densities to generalized density rwf, IOpCl= 0 IROHF=0.

 **********************************************************************

            Population analysis using the SCF density.

 **********************************************************************

 Orbital symmetries:
       Occupied  (A) (A) (A) (A) (A) (A) (A) (A) (A) (A) (A) (A)
                 (A) (A) (A) (A) (A) (A) (A) (A) (A) (A) (A) (A)
                 (A) (A) (A) (A) (A) (A) (A) (A) (A) (A) (A) (A)
                 (A) (A) (A) (A) (A) (A) (A) (A) (A) (A) (A) (A)
                 (A) (A) (A) (A) (A) (A) (A) (A) (A) (A) (A) (A)
                 (A) (A) (A) (A) (A) (A) (A) (A) (A) (A) (A) (A)
                 (A) (A) (A) (A) (A) (A) (A) (A) (A) (A) (A) (A)
                 (A) (A) (A) (A) (A) (A) (A) (A) (A) (A) (A) (A)
                 (A) (A) (A) (A) (A) (A) (A) (A) (A) (A) (A) (A)
                 (A) (A) (A) (A) (A) (A) (A) (A) (A) (A) (A) (A)
                 (A) (A) (A) (A) (A) (A) (A) (A) (A) (A) (A) (A)
                 (A) (A) (A) (A) (A) (A) (A)
       Virtual   (A) (A) (A) (A) (A) (A) (A) (A) (A) (A) (A) (A)
                 (A) (A) (A) (A) (A) (A) (A) (A) (A) (A) (A) (A)
                 (A) (A) (A) (A) (A) (A) (A) (A) (A) (A) (A) (A)
                 (A) (A) (A) (A) (A) (A) (A) (A) (A) (A) (A) (A)
                 (A) (A) (A) (A) (A) (A) (A) (A) (A) (A) (A) (A)
                 (A) (A) (A) (A) (A) (A) (A) (A) (A) (A) (A) (A)
                 (A) (A) (A) (A) (A) (A) (A) (A) (A) (A) (A) (A)
                 (A) (A) (A) (A) (A) (A) (A) (A) (A) (A) (A) (A)
                 (A) (A) (A) (A) (A) (A) (A) (A) (A) (A) (A) (A)
                 (A) (A) (A) (A) (A) (A) (A) (A) (A) (A) (A) (A)
                 (A) (A) (A) (A) (A) (A) (A) (A) (A) (A) (A) (A)
                 (A) (A) (A) (A) (A) (A) (A) (A) (A) (A) (A) (A)
                 (A) (A) (A) (A) (A) (A) (A) (A) (A) (A) (A) (A)
                 (A) (A) (A) (A) (A) (A) (A) (A) (A) (A) (A) (A)
                 (A) (A) (A) (A) (A) (A) (A) (A) (A) (A) (A) (A)
                 (A) (A) (A) (A) (A) (A) (A) (A) (A) (A) (A) (A)
                 (A) (A) (A) (A) (A) (A) (A) (A) (A) (A) (A) (A)
                 (A) (A) (A) (A) (A) (A) (A) (A) (A) (A) (A) (A)
                 (A) (A) (A) (A) (A) (A) (A) (A) (A) (A) (A) (A)
                 (A) (A) (A) (A) (A) (A) (A) (A) (A) (A) (A) (A)
                 (A) (A) (A) (A) (A) (A) (A) (A) (A) (A) (A) (A)
                 (A) (A) (A) (A) (A) (A) (A) (A) (A) (A) (A) (A)
                 (A) (A) (A) (A) (A) (A) (A) (A) (A) (A) (A) (A)
                 (A) (A) (A) (A) (A) (A) (A) (A) (A) (A) (A) (A)
                 (A) (A) (A) (A) (A) (A) (A) (A) (A) (A) (A) (A)
                 (A) (A) (A) (A) (A) (A) (A) (A) (A) (A) (A) (A)
                 (A) (A) (A) (A) (A) (A) (A) (A) (A) (A) (A) (A)
                 (A) (A) (A) (A) (A) (A) (A) (A) (A) (A) (A) (A)
                 (A) (A) (A) (A) (A) (A) (A) (A) (A) (A) (A) (A)
                 (A) (A) (A) (A) (A) (A) (A) (A) (A) (A) (A) (A)
                 (A) (A) (A) (A) (A) (A) (A) (A) (A) (A) (A) (A)
                 (A) (A) (A) (A) (A) (A) (A) (A) (A) (A) (A) (A)
                 (A) (A) (A) (A) (A) (A) (A) (A) (A) (A) (A) (A)
                 (A) (A) (A) (A) (A) (A) (A) (A) (A) (A) (A) (A)
                 (A) (A) (A) (A) (A) (A) (A) (A) (A) (A) (A) (A)
                 (A) (A) (A) (A) (A) (A) (A) (A) (A) (A) (A) (A)
                 (A) (A) (A) (A) (A) (A) (A) (A) (A) (A) (A) (A)
                 (A) (A) (A) (A) (A) (A) (A) (A) (A) (A) (A) (A)
                 (A) (A) (A) (A) (A) (A) (A) (A) (A) (A) (A) (A)
                 (A) (A) (A) (A) (A) (A) (A) (A) (A) (A) (A) (A)
                 (A) (A) (A) (A) (A) (A) (A) (A) (A) (A) (A) (A)
                 (A) (A) (A) (A) (A) (A) (A) (A) (A) (A) (A) (A)
                 (A) (A) (A) (A) (A) (A) (A) (A) (A) (A) (A) (A)
                 (A) (A) (A) (A) (A) (A) (A) (A) (A) (A) (A) (A)
                 (A) (A) (A) (A) (A) (A) (A) (A) (A) (A) (A) (A)
                 (A) (A) (A) (A) (A) (A) (A) (A) (A) (A) (A) (A)
                 (A) (A) (A) (A) (A) (A) (A) (A) (A) (A) (A) (A)
                 (A) (A) (A) (A) (A) (A) (A) (A) (A) (A) (A) (A)
                 (A) (A) (A) (A) (A) (A) (A) (A) (A) (A) (A) (A)
                 (A) (A) (A) (A) (A) (A) (A) (A) (A) (A) (A) (A)
                 (A) (A) (A) (A) (A) (A)
 The electronic state is 1-A.
 Alpha  occ. eigenvalues --  -19.13212 -19.08298 -19.05010 -19.02959 -19.02364
 Alpha  occ. eigenvalues --  -19.01700 -19.00302 -19.00228 -18.99991 -14.27959
 Alpha  occ. eigenvalues --  -14.27444 -14.27211 -14.24314 -14.23961 -10.26159
 Alpha  occ. eigenvalues --  -10.20952 -10.19967 -10.18025 -10.17713 -10.17305
 Alpha  occ. eigenvalues --  -10.15444 -10.14881 -10.14827 -10.14237 -10.12834
 Alpha  occ. eigenvalues --  -10.12404 -10.11817 -10.11251 -10.11244 -10.11000
 Alpha  occ. eigenvalues --  -10.10155 -10.08906 -10.08841 -10.08630 -10.07949
 Alpha  occ. eigenvalues --   -1.04358  -0.95564  -0.94852  -0.94337  -0.93282
 Alpha  occ. eigenvalues --   -0.92219  -0.91901  -0.91372  -0.87510  -0.84314
 Alpha  occ. eigenvalues --   -0.83932  -0.83169  -0.80353  -0.77172  -0.70547
 Alpha  occ. eigenvalues --   -0.69225  -0.68923  -0.67688  -0.66912  -0.64164
 Alpha  occ. eigenvalues --   -0.63806  -0.63072  -0.62194  -0.61457  -0.57762
 Alpha  occ. eigenvalues --   -0.55095  -0.54489  -0.54253  -0.50649  -0.50271
 Alpha  occ. eigenvalues --   -0.50167  -0.49627  -0.49204  -0.46758  -0.44600
 Alpha  occ. eigenvalues --   -0.43872  -0.43546  -0.42846  -0.42547  -0.41999
 Alpha  occ. eigenvalues --   -0.41260  -0.40878  -0.39340  -0.38856  -0.38741
 Alpha  occ. eigenvalues --   -0.38483  -0.38438  -0.37313  -0.36753  -0.36431
 Alpha  occ. eigenvalues --   -0.36272  -0.35885  -0.35726  -0.35570  -0.35389
 Alpha  occ. eigenvalues --   -0.35157  -0.35062  -0.34439  -0.33723  -0.33316
 Alpha  occ. eigenvalues --   -0.33273  -0.33166  -0.32858  -0.32314  -0.32031
 Alpha  occ. eigenvalues --   -0.31905  -0.31543  -0.31409  -0.31360  -0.31002
 Alpha  occ. eigenvalues --   -0.30678  -0.30363  -0.29989  -0.29502  -0.28955
 Alpha  occ. eigenvalues --   -0.28780  -0.28410  -0.28224  -0.27713  -0.27455
 Alpha  occ. eigenvalues --   -0.26870  -0.26731  -0.26649  -0.25853  -0.25202
 Alpha  occ. eigenvalues --   -0.25052  -0.24402  -0.24334  -0.24033  -0.22069
 Alpha  occ. eigenvalues --   -0.19864  -0.18872  -0.18535  -0.17728  -0.17443
 Alpha  occ. eigenvalues --   -0.17177  -0.16972  -0.16178  -0.15935  -0.15141
 Alpha  occ. eigenvalues --   -0.14596  -0.14257  -0.13716  -0.13176
 Alpha virt. eigenvalues --    0.06970   0.10712   0.11028   0.12137   0.13198
 Alpha virt. eigenvalues --    0.14022   0.14227   0.14668   0.15509   0.16852
 Alpha virt. eigenvalues --    0.17594   0.17960   0.18831   0.19322   0.19649
 Alpha virt. eigenvalues --    0.19908   0.20143   0.20353   0.21071   0.21267
 Alpha virt. eigenvalues --    0.21682   0.22064   0.22194   0.22464   0.23066
 Alpha virt. eigenvalues --    0.23200   0.23636   0.23885   0.24049   0.24490
 Alpha virt. eigenvalues --    0.24562   0.24802   0.24990   0.24994   0.25168
 Alpha virt. eigenvalues --    0.25358   0.25413   0.25870   0.25953   0.26516
 Alpha virt. eigenvalues --    0.26626   0.26951   0.27061   0.27574   0.27819
 Alpha virt. eigenvalues --    0.28393   0.28752   0.28964   0.29261   0.29594
 Alpha virt. eigenvalues --    0.30552   0.30744   0.31693   0.31926   0.31999
 Alpha virt. eigenvalues --    0.32151   0.32248   0.32803   0.33346   0.33749
 Alpha virt. eigenvalues --    0.34670   0.34945   0.36180   0.36507   0.36764
 Alpha virt. eigenvalues --    0.37519   0.37732   0.39289   0.39368   0.40912
 Alpha virt. eigenvalues --    0.42760   0.45017   0.45065   0.47471   0.47902
 Alpha virt. eigenvalues --    0.48708   0.49427   0.49577   0.53747   0.54145
 Alpha virt. eigenvalues --    0.55462   0.56212   0.57384   0.57701   0.57932
 Alpha virt. eigenvalues --    0.58823   0.59033   0.59575   0.59927   0.60119
 Alpha virt. eigenvalues --    0.61024   0.61329   0.61481   0.61616   0.61991
 Alpha virt. eigenvalues --    0.62523   0.63061   0.63122   0.63293   0.63553
 Alpha virt. eigenvalues --    0.63764   0.63868   0.64906   0.65050   0.65483
 Alpha virt. eigenvalues --    0.65851   0.66427   0.67245   0.67612   0.68212
 Alpha virt. eigenvalues --    0.68340   0.68762   0.69137   0.69209   0.69634
 Alpha virt. eigenvalues --    0.70192   0.70815   0.71478   0.71947   0.72388
 Alpha virt. eigenvalues --    0.72629   0.73646   0.74316   0.74457   0.74969
 Alpha virt. eigenvalues --    0.75681   0.76040   0.76476   0.76824   0.77220
 Alpha virt. eigenvalues --    0.77586   0.77710   0.78905   0.79573   0.80227
 Alpha virt. eigenvalues --    0.80806   0.81612   0.81919   0.82106   0.82336
 Alpha virt. eigenvalues --    0.83173   0.83392   0.84468   0.85431   0.85683
 Alpha virt. eigenvalues --    0.86141   0.86416   0.86763   0.87726   0.87785
 Alpha virt. eigenvalues --    0.88287   0.88679   0.89148   0.89465   0.89701
 Alpha virt. eigenvalues --    0.89868   0.90313   0.90872   0.91378   0.91648
 Alpha virt. eigenvalues --    0.92046   0.92634   0.92690   0.93319   0.93472
 Alpha virt. eigenvalues --    0.94001   0.94384   0.94646   0.94829   0.95043
 Alpha virt. eigenvalues --    0.95342   0.95615   0.95922   0.96650   0.97040
 Alpha virt. eigenvalues --    0.97218   0.97710   0.97802   0.97945   0.98168
 Alpha virt. eigenvalues --    0.98470   0.99205   0.99543   0.99859   1.00068
 Alpha virt. eigenvalues --    1.00564   1.00849   1.01000   1.01535   1.01856
 Alpha virt. eigenvalues --    1.02481   1.03518   1.03687   1.03856   1.04341
 Alpha virt. eigenvalues --    1.04763   1.05048   1.05445   1.06115   1.07288
 Alpha virt. eigenvalues --    1.08616   1.09218   1.10498   1.11238   1.11679
 Alpha virt. eigenvalues --    1.11877   1.12079   1.13197   1.14025   1.14390
 Alpha virt. eigenvalues --    1.14836   1.15344   1.16794   1.17091   1.17315
 Alpha virt. eigenvalues --    1.19369   1.19923   1.20494   1.21182   1.22112
 Alpha virt. eigenvalues --    1.22803   1.23806   1.24250   1.24307   1.25236
 Alpha virt. eigenvalues --    1.27091   1.27349   1.28199   1.29592   1.30761
 Alpha virt. eigenvalues --    1.31501   1.31548   1.32882   1.33997   1.34139
 Alpha virt. eigenvalues --    1.35131   1.35175   1.35958   1.36707   1.37348
 Alpha virt. eigenvalues --    1.38243   1.38832   1.39414   1.40117   1.40810
 Alpha virt. eigenvalues --    1.41213   1.41592   1.41979   1.42317   1.42550
 Alpha virt. eigenvalues --    1.42924   1.44437   1.44478   1.46024   1.47780
 Alpha virt. eigenvalues --    1.48271   1.48880   1.49806   1.50400   1.50464
 Alpha virt. eigenvalues --    1.51074   1.51227   1.52003   1.52163   1.52731
 Alpha virt. eigenvalues --    1.54708   1.55394   1.55807   1.56824   1.57285
 Alpha virt. eigenvalues --    1.58814   1.59224   1.61290   1.62691   1.62801
 Alpha virt. eigenvalues --    1.63697   1.64751   1.65562   1.65579   1.66469
 Alpha virt. eigenvalues --    1.66736   1.67965   1.68824   1.69612   1.70174
 Alpha virt. eigenvalues --    1.71955   1.72715   1.73972   1.74197   1.74899
 Alpha virt. eigenvalues --    1.75854   1.75994   1.76693   1.77018   1.78340
 Alpha virt. eigenvalues --    1.79092   1.79778   1.80533   1.83049   1.83442
 Alpha virt. eigenvalues --    1.84201   1.85154   1.85415   1.86091   1.86551
 Alpha virt. eigenvalues --    1.87876   1.88167   1.88366   1.88688   1.90138
 Alpha virt. eigenvalues --    1.90480   1.90730   1.90927   1.91636   1.92170
 Alpha virt. eigenvalues --    1.92532   1.92784   1.93767   1.94621   1.94935
 Alpha virt. eigenvalues --    1.95352   1.95629   1.96071   1.96778   1.96845
 Alpha virt. eigenvalues --    1.96876   1.97419   1.98127   1.98199   1.98586
 Alpha virt. eigenvalues --    1.98704   1.99517   1.99591   2.00101   2.00464
 Alpha virt. eigenvalues --    2.00735   2.02128   2.03182   2.03570   2.04020
 Alpha virt. eigenvalues --    2.04830   2.05613   2.06094   2.06944   2.07416
 Alpha virt. eigenvalues --    2.07833   2.09130   2.09529   2.09717   2.09802
 Alpha virt. eigenvalues --    2.09902   2.10012   2.10359   2.11407   2.11793
 Alpha virt. eigenvalues --    2.11829   2.11928   2.13058   2.13326   2.13627
 Alpha virt. eigenvalues --    2.13900   2.14274   2.14382   2.14922   2.15075
 Alpha virt. eigenvalues --    2.15648   2.16016   2.16294   2.16434   2.17741
 Alpha virt. eigenvalues --    2.18177   2.18753   2.18952   2.19145   2.19406
 Alpha virt. eigenvalues --    2.19746   2.20103   2.20940   2.21447   2.21903
 Alpha virt. eigenvalues --    2.22144   2.22902   2.23189   2.23410   2.24143
 Alpha virt. eigenvalues --    2.25482   2.25675   2.25879   2.26597   2.27672
 Alpha virt. eigenvalues --    2.27898   2.29530   2.29928   2.30287   2.30756
 Alpha virt. eigenvalues --    2.32642   2.33325   2.33448   2.33767   2.33843
 Alpha virt. eigenvalues --    2.34925   2.36019   2.36878   2.37404   2.37594
 Alpha virt. eigenvalues --    2.37917   2.39065   2.39470   2.39563   2.39856
 Alpha virt. eigenvalues --    2.41054   2.43407   2.43424   2.44239   2.44543
 Alpha virt. eigenvalues --    2.45791   2.46120   2.46575   2.47502   2.47645
 Alpha virt. eigenvalues --    2.48844   2.49542   2.49602   2.51028   2.52048
 Alpha virt. eigenvalues --    2.52461   2.54315   2.54560   2.54904   2.55164
 Alpha virt. eigenvalues --    2.55952   2.56664   2.57733   2.59184   2.59570
 Alpha virt. eigenvalues --    2.60745   2.61048   2.61271   2.61498   2.63271
 Alpha virt. eigenvalues --    2.63729   2.64028   2.64285   2.64975   2.65715
 Alpha virt. eigenvalues --    2.66263   2.66387   2.67146   2.67313   2.67731
 Alpha virt. eigenvalues --    2.68616   2.69681   2.70360   2.71320   2.71417
 Alpha virt. eigenvalues --    2.72850   2.73020   2.73401   2.73643   2.74095
 Alpha virt. eigenvalues --    2.74645   2.75274   2.76021   2.76327   2.76719
 Alpha virt. eigenvalues --    2.77463   2.77723   2.78320   2.78431   2.78775
 Alpha virt. eigenvalues --    2.79168   2.79950   2.80367   2.81097   2.81420
 Alpha virt. eigenvalues --    2.81746   2.82574   2.83954   2.85127   2.86193
 Alpha virt. eigenvalues --    2.88201   2.89650   2.89953   2.90692   2.90880
 Alpha virt. eigenvalues --    2.91424   2.92099   2.92598   2.92736   2.93289
 Alpha virt. eigenvalues --    2.93780   2.93849   2.94189   2.94622   2.95380
 Alpha virt. eigenvalues --    2.95811   2.96018   2.96611   2.96911   2.97619
 Alpha virt. eigenvalues --    2.98024   2.98432   2.98836   2.99257   2.99992
 Alpha virt. eigenvalues --    3.01018   3.01669   3.01851   3.05140   3.05519
 Alpha virt. eigenvalues --    3.06090   3.06900   3.08111   3.08399   3.09287
 Alpha virt. eigenvalues --    3.12014   3.15755   3.16009   3.17114   3.18065
 Alpha virt. eigenvalues --    3.18550   3.20509   3.20989   3.22541   3.23474
 Alpha virt. eigenvalues --    3.24514   3.27651   3.28550   3.29207   3.29485
 Alpha virt. eigenvalues --    3.29701   3.29856   3.31151   3.31683   3.32941
 Alpha virt. eigenvalues --    3.34333   3.34431   3.40007   3.40269   3.40445
 Alpha virt. eigenvalues --    3.45189   3.47868   3.48028   3.48554   3.48711
 Alpha virt. eigenvalues --    3.49115   3.49356   3.49550   3.50262   3.50714
 Alpha virt. eigenvalues --    3.51533   3.51870   3.52284   3.52680   3.53208
 Alpha virt. eigenvalues --    3.54417   3.54811   3.55235   3.55780   3.56092
 Alpha virt. eigenvalues --    3.57156   3.59147   3.61491   3.63086   3.64926
 Alpha virt. eigenvalues --    3.66965   3.68946   3.69555   3.74156   3.74962
 Alpha virt. eigenvalues --    3.81643   3.97582   4.08435   4.11254   4.12114
 Alpha virt. eigenvalues --    4.13290   4.16296   4.20348   4.20788   4.21070
 Alpha virt. eigenvalues --    4.25607   4.26265   4.28812   4.31324   4.31458
 Alpha virt. eigenvalues --    4.33875   4.35078   4.37527   4.39585   4.40521
 Alpha virt. eigenvalues --    4.46548   4.49697   4.52700   4.53583   4.55498
 Alpha virt. eigenvalues --    4.57196   4.58999   4.60278   4.61140   4.67708
 Alpha virt. eigenvalues --    4.68134   4.72606   4.72655   4.76795   4.78989
 Alpha virt. eigenvalues --    4.85024
          Condensed to atoms (all electrons):
 Mulliken charges:
               1
     1  C    0.559198
     2  C   -0.249014
     3  N   -0.535529
     4  C    0.032342
     5  H    0.121429
     6  H    0.109873
     7  O   -0.545238
     8  C   -0.163666
     9  H    0.299498
    10  H    0.095261
    11  O   -0.611334
    12  H    0.077388
    13  H    0.123101
    14  H    0.111907
    15  H    0.112838
    16  C    0.632209
    17  C   -0.389626
    18  O   -0.430190
    19  O   -0.512394
    20  H    0.137726
    21  H    0.125148
    22  H    0.170792
    23  C   -0.100045
    24  H    0.141027
    25  H    0.141029
    26  H    0.109126
    27  N   -0.531318
    28  C    0.262097
    29  C   -0.016959
    30  N   -0.524842
    31  H    0.102196
    32  C    0.262890
    33  H    0.064246
    34  C   -0.248768
    35  C   -0.328233
    36  H    0.083229
    37  H    0.138043
    38  H    0.088764
    39  H    0.086707
    40  H    0.138212
    41  C   -0.399976
    42  C    0.557697
    43  H    0.125347
    44  H    0.129749
    45  H    0.126349
    46  N   -0.539976
    47  O   -0.536343
    48  C   -0.176477
    49  H    0.299900
    50  H    0.146324
    51  H    0.106561
    52  H    0.106788
    53  C    0.586791
    54  C   -0.247215
    55  O   -0.600552
    56  O   -0.589537
    57  C   -0.306626
    58  H    0.104645
    59  H    0.095081
    60  H    0.068425
    61  H    0.095868
    62  H    0.123067
    63  N   -0.541420
    64  C   -0.169461
    65  C    0.528662
    66  H    0.301188
    67  H    0.123274
    68  H    0.100549
    69  H    0.118460
    70  C   -0.396117
    71  O   -0.539445
    72  H    0.134139
    73  H    0.135683
    74  H    0.099904
    75  O   -0.665839
    76  H    0.297690
    77  H    0.339008
    78  H    0.346389
    79  H    0.372326
 Sum of Mulliken charges =  -1.00000
 Mulliken charges with hydrogens summed into heavy atoms:
               1
     1  C    0.559198
     2  C   -0.017713
     3  N   -0.236031
     4  C    0.204991
     7  O   -0.545238
     8  C    0.184180
    11  O   -0.239008
    16  C    0.632209
    17  C    0.044039
    18  O   -0.430190
    19  O   -0.512394
    23  C    0.291136
    27  N   -0.531318
    28  C    0.364294
    29  C    0.047287
    30  N   -0.178453
    32  C    0.262890
    34  C   -0.027497
    35  C   -0.014550
    41  C   -0.018531
    42  C    0.557697
    46  N   -0.240076
    47  O   -0.536343
    48  C    0.183196
    53  C    0.586791
    54  C   -0.047488
    55  O   -0.600552
    56  O   -0.589537
    57  C   -0.019265
    63  N   -0.240232
    64  C    0.172822
    65  C    0.528662
    70  C   -0.026391
    71  O   -0.539445
    75  O   -0.029142
 APT charges:
               1
     1  C    1.019507
     2  C   -0.039787
     3  N   -0.735319
     4  C    0.533977
     5  H   -0.019124
     6  H   -0.024731
     7  O   -0.805722
     8  C    0.359206
     9  H    0.270031
    10  H   -0.050142
    11  O   -0.958415
    12  H   -0.092459
    13  H   -0.022766
    14  H   -0.054891
    15  H    0.002375
    16  C    1.217181
    17  C   -0.097455
    18  O   -0.813136
    19  O   -0.888737
    20  H    0.023110
    21  H    0.009797
    22  H    0.068764
    23  C    0.425679
    24  H    0.015593
    25  H    0.035680
    26  H   -0.041463
    27  N   -0.609624
    28  C    0.237671
    29  C    0.007547
    30  N   -0.606439
    31  H    0.051299
    32  C    0.105846
    33  H    0.029032
    34  C    0.140173
    35  C    0.067804
    36  H   -0.050283
    37  H    0.010171
    38  H   -0.053617
    39  H   -0.041026
    40  H    0.028859
    41  C   -0.025022
    42  C    1.084915
    43  H    0.000314
    44  H   -0.000847
    45  H   -0.004389
    46  N   -0.772121
    47  O   -0.829434
    48  C    0.275037
    49  H    0.336307
    50  H    0.056697
    51  H   -0.047721
    52  H   -0.041614
    53  C    1.255226
    54  C   -0.003521
    55  O   -1.128684
    56  O   -1.060355
    57  C    0.083489
    58  H   -0.042914
    59  H   -0.045209
    60  H   -0.071712
    61  H   -0.030715
    62  H    0.008702
    63  N   -0.823320
    64  C    0.343692
    65  C    1.044359
    66  H    0.365960
    67  H   -0.003712
    68  H   -0.066368
    69  H   -0.004774
    70  C   -0.088661
    71  O   -0.792330
    72  H    0.035994
    73  H    0.046679
    74  H   -0.019202
    75  O   -0.707437
    76  H    0.274347
    77  H    0.396979
    78  H    0.685712
    79  H    0.661483
 Sum of APT charges =  -1.00000
 APT charges with hydrogens summed into heavy atoms:
               1
     1  C    1.019507
     2  C   -0.083642
     3  N   -0.465288
     4  C    0.391376
     7  O   -0.805722
     8  C    0.283923
    11  O   -0.296932
    16  C    1.217181
    17  C    0.004217
    18  O   -0.813136
    19  O   -0.888737
    23  C    0.435489
    27  N   -0.609624
    28  C    0.288970
    29  C    0.036578
    30  N    0.079273
    32  C    0.105846
    34  C    0.100061
    35  C    0.002020
    41  C   -0.029944
    42  C    1.084915
    46  N   -0.435814
    47  O   -0.829434
    48  C    0.242399
    53  C    1.255226
    54  C   -0.091643
    55  O   -1.128684
    56  O   -1.060355
    57  C   -0.010235
    63  N   -0.457359
    64  C    0.268839
    65  C    1.044359
    70  C   -0.025190
    71  O   -0.792330
    75  O   -0.036110
 Electronic spatial extent (au):  <R**2>=          30064.9980
 Charge=             -1.0000 electrons
 Dipole moment (field-independent basis, Debye):
    X=             -4.1882    Y=              1.2745    Z=              1.0102  Tot=              4.4929
 Quadrupole moment (field-independent basis, Debye-Ang):
   XX=           -385.8669   YY=           -282.1147   ZZ=           -229.4944
   XY=             14.3014   XZ=             12.6019   YZ=              0.5182
 Traceless Quadrupole moment (field-independent basis, Debye-Ang):
   XX=            -86.7082   YY=             17.0440   ZZ=             69.6643
   XY=             14.3014   XZ=             12.6019   YZ=              0.5182
 Octapole moment (field-independent basis, Debye-Ang**2):
  XXX=            211.3757  YYY=            -70.6107  ZZZ=             -0.4949  XYY=             91.8055
  XXY=            207.0348  XXZ=           -139.1945  XZZ=            -32.6361  YZZ=             36.3018
  YYZ=             83.7822  XYZ=           -135.7392
 Hexadecapole moment (field-independent basis, Debye-Ang**3):
 XXXX=         -37493.1345 YYYY=          -7609.7169 ZZZZ=          -3453.7804 XXXY=          -1402.1171
 XXXZ=           1076.9774 YYYX=            719.3929 YYYZ=             88.2115 ZZZX=            105.4671
 ZZZY=           -123.2405 XXYY=          -8133.8913 XXZZ=          -5926.8759 YYZZ=          -1932.2461
 XXYZ=            694.8163 YYXZ=             -0.2668 ZZXY=            137.8852
 N-N= 3.934033374231D+03 E-N=-1.204268650426D+04  KE= 1.761470517889D+03
  Exact polarizability: 366.947  -2.674 279.852   8.995  -5.610 258.939
 Approx polarizability: 458.501   1.834 406.255   3.790 -16.085 372.979
 No NMR shielding tensors so no spin-rotation constants.
 Leave Link  601 at Thu Aug 27 17:42:15 2020, MaxMem=  2147483648 cpu:        28.1
 (Enter /global/apps/Gaussian/09.d01/l701.exe)
 Compute integral second derivatives.
 ... and contract with generalized density number  0.
 R6Disp: Adding Grimme-D3 dispersion energy 2nd derivatives to the Hessian.
 Leave Link  701 at Thu Aug 27 17:42:18 2020, MaxMem=  2147483648 cpu:        52.3
 (Enter /global/apps/Gaussian/09.d01/l702.exe)
 L702 exits ... SP integral derivatives will be done elsewhere.
 Leave Link  702 at Thu Aug 27 17:42:18 2020, MaxMem=  2147483648 cpu:         0.3
 (Enter /global/apps/Gaussian/09.d01/l703.exe)
 Compute integral second derivatives, UseDBF=F ICtDFT=           0.
 Integral derivatives from FoFJK, PRISM(SPDF).
 Calling FoFJK, ICntrl=    100127 FMM=F ISym2X=0 I1Cent= 0 IOpClX= 0 NMat=1 NMatS=1 NMatT=0.
 FoFJK:  IHMeth= 1 ICntrl=  100127 DoSepK=F KAlg= 0 I1Cent=   0 FoldK=F
 IRaf=         0 NMat=   1 IRICut=       1 DoRegI=T DoRafI=F ISym2E= 0.
 FoFCou: FMM=F IPFlag=           0 FMFlag=      100000 FMFlg1=        2800
         NFxFlg=           0 DoJE=F BraDBF=F KetDBF=F FulRan=T
         wScrn=  0.000000 ICntrl=  100127 IOpCl=  0 I1Cent=           0 NGrid=           0
         NMat0=    1 NMatS0=      1 NMatT0=    0 NMatD0=    1 NMtDS0=    0 NMtDT0=    0
 Symmetry not used in FoFCou.
 Leave Link  703 at Thu Aug 27 17:45:20 2020, MaxMem=  2147483648 cpu:      3611.1
 (Enter /global/apps/Gaussian/09.d01/l716.exe)
 Dipole        =-1.64775958D+00 5.01432472D-01 3.97444827D-01
 Polarizability= 3.66947077D+02-2.67433992D+00 2.79852222D+02
                 8.99456504D+00-5.60955302D+00 2.58939023D+02
 Full mass-weighted force constant matrix:
 Low frequencies ---   -9.6444   -0.0015   -0.0003    0.0015    6.9479    8.1518
 Low frequencies ---    9.6098   11.0410   11.3971
 ******    1 imaginary frequencies (negative Signs) ****** 
 Diagonal vibrational polarizability:
      717.8199968     316.8517124     564.4624146
 Harmonic frequencies (cm**-1), IR intensities (KM/Mole), Raman scattering
 activities (A**4/AMU), depolarization ratios for plane and unpolarized
 incident light, reduced masses (AMU), force constants (mDyne/A),
 and normal coordinates:
                      1                      2                      3
                      A                      A                      A
 Frequencies --     -9.1876                10.1802                10.9021
 Red. masses --      5.7769                 5.7414                 3.5716
 Frc consts  --      0.0003                 0.0004                 0.0003
 IR Inten    --      1.4585                 1.1626                 0.2898
  Atom  AN      X      Y      Z        X      Y      Z        X      Y      Z
     1   6    -0.05  -0.03   0.02    -0.09  -0.01   0.09    -0.02  -0.03   0.00
     2   6    -0.06   0.00   0.05    -0.10  -0.02   0.11    -0.01  -0.02  -0.01
     3   7     0.01  -0.05  -0.03    -0.06  -0.02   0.02    -0.01  -0.04   0.00
     4   6    -0.05  -0.01   0.04    -0.06  -0.08   0.03    -0.01  -0.02   0.00
     5   1    -0.05   0.04   0.07    -0.10   0.06   0.11    -0.02  -0.02  -0.01
     6   1    -0.11  -0.01   0.07    -0.14  -0.05   0.18    -0.02  -0.02  -0.01
     7   8    -0.08  -0.04   0.04    -0.11   0.00   0.14    -0.02  -0.04   0.00
     8   6     0.04  -0.09  -0.07    -0.05  -0.01   0.00     0.00  -0.05   0.00
     9   1     0.04  -0.04  -0.04    -0.05  -0.03  -0.02     0.00  -0.03  -0.01
    10   1    -0.07   0.01   0.06    -0.07  -0.09   0.06    -0.01  -0.01  -0.01
    11   8    -0.01   0.01   0.02    -0.02  -0.03  -0.06     0.00  -0.02   0.00
    12   1    -0.07  -0.04   0.02    -0.06  -0.16   0.03     0.00  -0.02   0.00
    13   1     0.02  -0.02  -0.03    -0.06   0.06   0.03    -0.02  -0.03   0.01
    14   1    -0.01  -0.20  -0.05    -0.07  -0.08   0.02    -0.01  -0.08   0.01
    15   1     0.12  -0.09  -0.15    -0.01  -0.01  -0.08     0.02  -0.05  -0.03
    16   6     0.14   0.00  -0.04    -0.02   0.02  -0.12     0.01  -0.02   0.00
    17   6     0.18   0.03  -0.02    -0.04   0.07  -0.10     0.04  -0.03   0.00
    18   8     0.14   0.03   0.00     0.00   0.00  -0.16     0.00  -0.03   0.02
    19   8     0.12  -0.05  -0.09    -0.01  -0.01  -0.10     0.00  -0.01  -0.02
    20   1     0.22   0.07   0.01    -0.05   0.10  -0.14     0.04  -0.03   0.02
    21   1     0.20   0.01  -0.05    -0.06   0.08  -0.08     0.05  -0.02  -0.02
    22   1     0.13   0.04   0.01    -0.05   0.06  -0.07     0.04  -0.03   0.01
    23   6     0.09   0.00  -0.02     0.02  -0.05  -0.17    -0.03  -0.02   0.02
    24   1     0.08   0.02   0.02     0.03  -0.05  -0.20    -0.04  -0.03   0.03
    25   1     0.04  -0.03  -0.02     0.02  -0.08  -0.13    -0.03  -0.01   0.00
    26   1     0.11  -0.02  -0.06     0.04  -0.07  -0.20    -0.04  -0.01   0.01
    27   7    -0.02   0.04   0.05    -0.02  -0.04  -0.04     0.00  -0.01   0.00
    28   6    -0.02   0.03   0.04    -0.02  -0.04  -0.04     0.00  -0.01   0.00
    29   6    -0.02   0.04   0.05    -0.02  -0.03  -0.04     0.01  -0.01   0.00
    30   7    -0.02   0.03   0.03    -0.02  -0.03  -0.03     0.00   0.00  -0.01
    31   1    -0.02   0.03   0.04    -0.02  -0.04  -0.04    -0.01  -0.01   0.00
    32   6    -0.01   0.03   0.04    -0.02  -0.02  -0.03     0.01   0.00   0.00
    33   1    -0.02   0.05   0.05    -0.02  -0.04  -0.04     0.01  -0.01   0.00
    34   6    -0.01   0.02   0.03    -0.02  -0.01  -0.03     0.01   0.00  -0.01
    35   6     0.00   0.02   0.02    -0.04   0.00  -0.02     0.00   0.01  -0.01
    36   1    -0.02   0.03   0.04    -0.02  -0.02  -0.03     0.01   0.00  -0.01
    37   1    -0.03   0.01   0.03    -0.01   0.00  -0.02     0.01   0.01  -0.01
    38   1     0.00   0.01   0.02    -0.03   0.01  -0.02     0.01   0.01  -0.01
    39   1     0.02   0.03   0.02    -0.05  -0.01  -0.02     0.00   0.01  -0.01
    40   1     0.01   0.00   0.01    -0.04   0.00  -0.02     0.00   0.01  -0.01
    41   6     0.13   0.05   0.00     0.04   0.05  -0.03    -0.01   0.20   0.22
    42   6     0.12   0.04  -0.01     0.05   0.10   0.05    -0.03   0.09   0.06
    43   1     0.13   0.05   0.00     0.04   0.00  -0.08    -0.01   0.22   0.24
    44   1     0.14   0.06   0.01     0.06   0.10  -0.07     0.05   0.14   0.31
    45   1     0.12   0.07   0.00     0.03   0.00   0.00    -0.05   0.31   0.21
    46   7     0.11   0.01  -0.05     0.04   0.08   0.04    -0.05  -0.01  -0.07
    47   8     0.12   0.07   0.02     0.05   0.15   0.12    -0.04   0.09   0.05
    48   6     0.10  -0.01  -0.07     0.05   0.13   0.11    -0.08  -0.12  -0.23
    49   1     0.12  -0.01  -0.07     0.04   0.04  -0.02    -0.04   0.00  -0.06
    50   1     0.09   0.00  -0.06     0.05   0.18   0.19    -0.09  -0.14  -0.29
    51   1     0.12  -0.03  -0.07     0.08   0.18   0.06    -0.04  -0.25  -0.21
    52   1     0.08  -0.01  -0.08     0.01   0.06   0.15    -0.13  -0.05  -0.33
    53   6    -0.03  -0.02  -0.01    -0.01   0.00   0.01     0.00   0.02   0.00
    54   6    -0.03  -0.05  -0.04    -0.01   0.03   0.04     0.00   0.03   0.00
    55   8    -0.01  -0.01   0.01    -0.03   0.00  -0.02    -0.01   0.01  -0.01
    56   8    -0.07  -0.02  -0.01     0.02   0.00   0.02     0.01   0.01   0.00
    57   6    -0.06  -0.07  -0.06     0.02   0.01   0.08     0.01   0.03   0.01
    58   1    -0.01  -0.06  -0.04    -0.04   0.06   0.05     0.00   0.04   0.00
    59   1    -0.01  -0.06  -0.04    -0.02   0.02   0.01    -0.01   0.03  -0.01
    60   1    -0.05  -0.09  -0.08     0.01   0.03   0.10     0.01   0.04   0.01
    61   1    -0.08  -0.07  -0.05     0.04  -0.02   0.07     0.01   0.02   0.01
    62   1    -0.08  -0.07  -0.06     0.03   0.02   0.11     0.02   0.03   0.02
    63   7    -0.12   0.02   0.02     0.06  -0.04   0.01     0.03   0.00   0.00
    64   6    -0.12   0.04   0.03     0.06  -0.07   0.01     0.03  -0.02   0.00
    65   6    -0.14   0.00   0.02     0.08  -0.04   0.03     0.04   0.00   0.01
    66   1    -0.10   0.01   0.01     0.05  -0.03   0.01     0.02   0.00   0.00
    67   1    -0.10   0.05   0.03     0.05  -0.06   0.00     0.03  -0.01   0.00
    68   1    -0.12   0.04   0.03     0.06  -0.09   0.00     0.03  -0.02   0.00
    69   1    -0.13   0.05   0.04     0.08  -0.07   0.02     0.04  -0.02   0.01
    70   6    -0.14  -0.03   0.00     0.08  -0.02   0.03     0.04   0.01   0.01
    71   8    -0.16   0.01   0.02     0.10  -0.06   0.03     0.05  -0.01   0.01
    72   1    -0.12  -0.03   0.00     0.06  -0.01   0.02     0.03   0.01   0.00
    73   1    -0.14  -0.04   0.00     0.08   0.00   0.04     0.04   0.02   0.01
    74   1    -0.16  -0.03   0.00     0.09  -0.02   0.04     0.04   0.01   0.01
    75   8    -0.09  -0.01   0.00     0.06   0.01   0.03     0.04   0.02   0.00
    76   1    -0.11   0.00   0.01     0.07  -0.01   0.03     0.04   0.01   0.01
    77   1    -0.08  -0.02  -0.01     0.04   0.01   0.03     0.03   0.02   0.00
    78   1    -0.01   0.01   0.03    -0.02  -0.02  -0.03     0.00   0.00  -0.01
    79   1    -0.01   0.03   0.04    -0.02  -0.03  -0.05     0.00  -0.02   0.00
                      4                      5                      6
                      A                      A                      A
 Frequencies --     11.8470                13.6271                18.3769
 Red. masses --      5.5467                 5.3371                 3.6536
 Frc consts  --      0.0005                 0.0006                 0.0007
 IR Inten    --      0.7430                 0.0320                 0.3310
  Atom  AN      X      Y      Z        X      Y      Z        X      Y      Z
     1   6    -0.05   0.07   0.05     0.04  -0.01   0.08    -0.03  -0.02   0.04
     2   6    -0.03   0.08   0.00     0.02  -0.03   0.13    -0.03  -0.01   0.05
     3   7    -0.05   0.06   0.06     0.04   0.00   0.03    -0.01  -0.03   0.01
     4   6     0.02   0.07  -0.02    -0.02  -0.06   0.11    -0.03  -0.02   0.04
     5   1    -0.06   0.09  -0.02     0.04  -0.02   0.15    -0.03   0.01   0.06
     6   1    -0.03   0.07   0.01     0.01  -0.04   0.15    -0.05  -0.02   0.07
     7   8    -0.08   0.06   0.06     0.06   0.01   0.09    -0.04  -0.02   0.06
     8   6    -0.07   0.05   0.10     0.05   0.02  -0.01     0.00  -0.03   0.00
     9   1    -0.03   0.06   0.05     0.02  -0.01   0.03     0.00  -0.03   0.00
    10   1     0.04   0.08  -0.05    -0.04  -0.08   0.14    -0.04  -0.02   0.06
    11   8     0.01   0.08  -0.04    -0.01  -0.05   0.08    -0.01  -0.01   0.03
    12   1     0.05   0.06   0.01    -0.04  -0.08   0.08    -0.04  -0.04   0.03
    13   1    -0.09   0.04   0.09     0.08   0.06   0.01     0.00   0.00   0.02
    14   1    -0.05   0.07   0.11     0.04   0.00  -0.01    -0.01  -0.07   0.01
    15   1    -0.07   0.05   0.12     0.06   0.03  -0.05     0.02  -0.03  -0.03
    16   6    -0.04   0.08  -0.02     0.02  -0.01   0.01     0.02  -0.02   0.03
    17   6    -0.09   0.10  -0.02     0.05   0.02   0.03     0.04  -0.03   0.03
    18   8    -0.01   0.09  -0.06     0.00  -0.03   0.02     0.01  -0.02   0.05
    19   8    -0.02   0.07   0.02     0.00  -0.01  -0.02     0.01  -0.02   0.02
    20   1    -0.10   0.11  -0.06     0.06   0.02   0.03     0.05  -0.03   0.05
    21   1    -0.11   0.11   0.01     0.07   0.03   0.01     0.05  -0.05   0.02
    22   1    -0.08   0.10  -0.02     0.05   0.01   0.06     0.02  -0.03   0.03
    23   6     0.04   0.07  -0.06    -0.04  -0.05   0.01    -0.01  -0.01   0.06
    24   1     0.05   0.08  -0.10    -0.05  -0.08   0.03    -0.02  -0.03   0.07
    25   1     0.04   0.05  -0.04    -0.03  -0.06   0.02     0.00   0.01   0.04
    26   1     0.05   0.06  -0.05    -0.06  -0.04  -0.02    -0.03   0.01   0.06
    27   7     0.01   0.04  -0.03     0.01  -0.02   0.05     0.02   0.05  -0.03
    28   6     0.01   0.01  -0.04    -0.01  -0.03   0.02     0.01   0.05  -0.04
    29   6     0.00   0.06  -0.01     0.03   0.01   0.05     0.03   0.06  -0.04
    30   7     0.01   0.01  -0.04     0.00   0.00   0.00     0.02   0.05  -0.06
    31   1     0.01  -0.01  -0.06    -0.04  -0.05   0.01     0.00   0.04  -0.05
    32   6     0.00   0.05  -0.02     0.03   0.02   0.02     0.03   0.06  -0.05
    33   1     0.00   0.09   0.00     0.05   0.02   0.07     0.04   0.06  -0.03
    34   6     0.00   0.06  -0.01     0.05   0.05   0.01     0.04   0.06  -0.06
    35   6     0.01   0.06  -0.04     0.05   0.07  -0.03     0.04   0.07  -0.07
    36   1    -0.01   0.08   0.01     0.07   0.06   0.03     0.05   0.06  -0.06
    37   1    -0.01   0.04   0.01     0.05   0.05   0.01     0.04   0.06  -0.07
    38   1     0.01   0.07  -0.03     0.06   0.10  -0.04     0.05   0.07  -0.08
    39   1     0.02   0.08  -0.05     0.05   0.08  -0.03     0.05   0.06  -0.06
    40   1     0.01   0.04  -0.05     0.03   0.06  -0.05     0.03   0.07  -0.07
    41   6    -0.01  -0.07   0.09    -0.02   0.01  -0.16    -0.02   0.00  -0.06
    42   6     0.04  -0.11  -0.02    -0.06   0.02  -0.12    -0.04   0.00  -0.04
    43   1    -0.04   0.00   0.11     0.00   0.00  -0.14    -0.01   0.00  -0.04
    44   1    -0.02  -0.14   0.15    -0.04   0.03  -0.19    -0.03   0.00  -0.07
    45   1    -0.02  -0.03   0.08    -0.01   0.01  -0.18     0.00   0.00  -0.07
    46   7     0.04  -0.07  -0.07    -0.06   0.02  -0.06    -0.04   0.00  -0.01
    47   8     0.07  -0.18  -0.06    -0.09   0.03  -0.14    -0.05   0.00  -0.06
    48   6     0.09  -0.11  -0.17    -0.09   0.02  -0.02    -0.05   0.00   0.01
    49   1     0.02  -0.02  -0.03    -0.04   0.00  -0.05    -0.02   0.00   0.00
    50   1     0.11  -0.17  -0.20    -0.11   0.04  -0.02    -0.06   0.01  -0.01
    51   1     0.10  -0.15  -0.15    -0.11   0.03  -0.01    -0.07   0.00   0.02
    52   1     0.09  -0.04  -0.23    -0.08   0.00   0.01    -0.04   0.00   0.02
    53   6     0.01  -0.03  -0.03    -0.02   0.04  -0.09     0.01   0.00  -0.02
    54   6     0.01  -0.04  -0.04    -0.03   0.07  -0.16     0.01  -0.03   0.04
    55   8     0.02  -0.02  -0.06    -0.03   0.02  -0.07     0.02   0.04  -0.07
    56   8     0.01  -0.04   0.00    -0.01   0.02  -0.06    -0.01   0.01  -0.01
    57   6     0.01  -0.08   0.00    -0.04   0.08  -0.19     0.06  -0.21   0.26
    58   1     0.01   0.01  -0.03     0.02   0.09  -0.17    -0.08   0.14   0.08
    59   1     0.02  -0.05  -0.08    -0.06   0.07  -0.17     0.07  -0.07  -0.13
[...]
 ,-0.00005778,0.00021924,0.00019228,0.00026476,0.02819498,0.19268818,-0
 .12396470,-0.00952907,-0.01814758,0.00838572,-0.01868515,-0.16900042,0
 .12164313,-0.00068716,0.00024446,-0.00037701,0.00022050,0.00005811,0.0
 0001340,0.00035949,-0.00003807,0.00021164,-0.00055507,0.00097836,0.000
 25828,-0.00001433,0.00007983,-0.00005326,0.00004172,-0.00010853,0.0000
 2930,0.00049279,-0.00037321,0.00035367,-0.00025530,-0.00003620,-0.0001
 3289,-0.00030651,0.00003596,-0.00015731,-0.00007791,0.00025543,0.00013
 899,0.00290164,-0.00132821,0.00063784,0.00021419,-0.00013508,-0.000091
 21,0.00003214,-0.00002742,0.00004758,0.00008135,-0.00002158,0.00000251
 ,-0.00000253,0.00002969,0.00000086,-0.00110635,0.00016591,-0.00056079,
 0.00006157,-0.00009383,0.00006219,0.00072008,-0.00000309,0.00058988,0.
 00066566,0.00005076,0.00005229,-0.00002374,-0.00000580,-0.00003560,0.0
 0005964,0.00001978,0.00004388,-0.00007037,0.00004300,-0.00015133,-0.00
 031999,-0.00000326,-0.00031188,0.00000435,-0.00042348,-0.00004987,-0.0
 0022320,-0.00004252,0.00006763,0.00015634,0.00010199,0.00015099,0.0091
 6322,0.00364204,-0.00567514,-0.01887267,-0.00160984,0.00021076,0.00578
 935,0.00264152,-0.00359432,-0.22479091,-0.06052714,0.05702583,0.000975
 11,0.00008648,0.00053045,0.01287747,-0.00398442,0.00948415,0.00196811,
 0.00005535,-0.00041250,0.00167575,-0.00023047,0.00090724,0.00030426,0.
 00169431,-0.00040667,-0.00090025,0.00020385,-0.00054820,-0.00041970,0.
 00045318,-0.00083250,-0.00066924,-0.00039695,-0.00026394,-0.00018139,-
 0.00023393,0.00058352,0.00000520,-0.00053136,-0.00161622,-0.00003323,-
 0.00002427,0.00002487,-0.00047328,-0.00007419,0.00007943,-0.00000820,0
 .00001122,-0.00002436,-0.00000672,-0.00000783,-0.00000678,0.00002321,0
 .00001191,0.00001199,0.00032439,0.00005187,0.00001683,0.00027487,0.000
 16605,-0.00011409,0.00001287,-0.00000117,-0.00008165,-0.00021280,-0.00
 013655,0.00005396,0.00002268,0.00000140,0.00000279,-0.00000094,-0.0000
 1090,0.00007945,-0.00002131,-0.00004307,-0.00000274,-0.02330456,0.0373
 3139,0.01288879,0.00338744,-0.00350459,0.00027619,0.03142350,-0.002821
 49,-0.01247327,-0.00202279,-0.02071724,-0.00630277,0.00130521,0.000770
 41,0.00099010,0.00118023,-0.00019751,0.00013809,-0.00043575,-0.0003996
 4,-0.00023947,0.00108296,-0.00031387,-0.00051865,-0.00006779,-0.000020
 59,-0.00028458,-0.00019315,-0.00012601,-0.00005505,-0.00198343,-0.0007
 4236,0.00007798,0.00178126,-0.00053152,-0.00114375,0.00128736,0.000044
 21,0.00004431,0.00329126,0.00263890,0.00095787,-0.00014635,-0.00029433
 ,0.00027707,-0.00045048,0.00001530,-0.00017258,-0.00034720,0.00002769,
 0.00011378,-0.00029950,0.00027707,-0.00024397,-0.00109416,-0.00042403,
 -0.00019720,-0.00010551,0.00010145,0.00074807,-0.00007931,0.00026165,0
 .00002960,-0.00013758,-0.00024872,-0.00005084,-0.00129837,-0.00217059,
 0.00204735,0.00057034,0.00014970,-0.00030301,0.00024851,0.00375079,-0.
 00234303,0.20109530,-0.00015464,0.00017372,-0.00009443,0.00005562,-0.0
 0001272,-0.00002881,0.00008394,-0.00008000,0.00004734,-0.00014179,0.00
 051774,0.00019148,-0.00000246,0.00004311,-0.00000171,0.00003166,-0.000
 05795,0.00001033,0.00013476,-0.00016753,0.00011019,-0.00007247,-0.0000
 0762,-0.00003515,-0.00011840,0.00004101,-0.00005162,-0.00005369,0.0000
 5393,0.00002159,0.00124621,-0.00080842,0.00021180,0.00007300,-0.000080
 67,-0.00004340,0.00000926,-0.00000706,0.00001481,0.00002336,-0.0000074
 2,-0.00000096,-0.00000860,0.00000495,-0.00000329,-0.00052815,0.0001393
 2,-0.00023966,0.00001705,-0.00003179,0.00003312,0.00034908,-0.00004786
 ,0.00023429,0.00031376,-0.00002020,0.00000292,-0.00000986,-0.00000246,
 -0.00002066,0.00002541,0.00000620,0.00001807,-0.00002526,0.00002109,-0
 .00004866,-0.00015443,0.00004038,-0.00010698,0.00001975,-0.00018355,0.
 00000521,-0.00007721,-0.00001137,0.00002755,0.00006801,0.00003458,0.00
 006884,0.00729885,0.00530370,0.00208943,0.00334100,0.00247440,-0.01264
 597,0.00085182,0.00067164,0.00326883,-0.06144710,-0.06483247,0.0463868
 6,0.00042573,-0.00128525,-0.00027076,-0.00955339,-0.00603931,0.0014235
 9,-0.00020982,0.00133703,0.00047792,0.00054878,-0.00058041,-0.00058703
 ,0.00037949,0.00076278,-0.00012419,-0.00019977,-0.00006866,-0.00057030
 ,0.00053624,-0.00053877,-0.00004330,-0.00027101,-0.00030045,-0.0000475
 8,-0.00003608,-0.00011366,-0.00007109,-0.00013816,0.00009421,-0.000311
 61,-0.00000777,-0.00001227,0.00001044,-0.00019422,-0.00001242,0.000027
 03,-0.00000549,0.00000650,-0.00000715,0.00000041,-0.00000335,-0.000003
 65,0.00000769,0.00000380,0.00000443,0.00013365,0.00000417,0.00000130,0
 .00010860,0.00005153,-0.00004254,0.00000168,0.00001320,-0.00002731,-0.
 00008355,-0.00004515,0.00002683,0.00000705,0.00000053,0.00000111,-0.00
 000099,-0.00000392,0.00003093,-0.00000629,-0.00002133,-0.00000531,0.00
 361656,0.02141441,0.00436343,0.00159925,-0.00225637,-0.00104203,0.0099
 8889,-0.02168714,-0.00425664,-0.00362789,-0.00939738,-0.00095623,0.000
 83296,0.00048001,0.00040698,0.00026247,-0.00010883,0.00002628,-0.00023
 500,-0.00017008,-0.00005679,0.00041106,-0.00022476,-0.00026264,-0.0000
 0794,0.00001190,-0.00010178,-0.00000379,-0.00010856,0.00000347,-0.0008
 2026,0.00010459,0.00048206,0.00033119,-0.00013248,-0.00052129,0.000784
 46,-0.00050446,-0.00055225,0.00123329,-0.00012672,-0.00050977,-0.00017
 563,-0.00015064,0.00024553,-0.00011525,-0.00001471,-0.00001786,-0.0000
 7400,0.00007142,0.00008745,-0.00015760,0.00008804,-0.00004779,-0.00028
 062,0.00026294,0.00026292,-0.00001462,0.00001940,0.00016701,-0.0000227
 2,0.00006288,0.00000250,-0.00005558,-0.00004845,0.00001467,-0.00059891
 ,-0.00042622,0.00058085,0.00021556,-0.00013670,-0.00008090,0.00031501,
 0.00098086,-0.00069518,0.04573688,0.07480181,0.00025037,-0.00008257,0.
 00013269,-0.00010211,-0.00001770,0.00002957,-0.00012929,0.00000466,-0.
 00009544,0.00020762,-0.00044044,-0.00012062,0.00000866,-0.00002545,0.0
 0000349,-0.00001465,0.00004380,-0.00001714,-0.00017569,0.00013219,-0.0
 0013858,0.00008778,0.00001994,0.00005279,0.00012616,-0.00000085,0.0000
 7893,0.00004664,-0.00013213,-0.00003073,-0.00145507,0.00062774,-0.0004
 7555,-0.00007770,0.00006461,0.00003031,-0.00001450,0.00001172,-0.00001
 877,-0.00002757,0.00000569,-0.00000406,-0.00000302,-0.00001177,0.00000
 017,0.00029432,-0.00003182,0.00025206,-0.00001479,0.00004478,-0.000032
 38,-0.00019751,-0.00002161,-0.00020751,-0.00016041,-0.00002768,-0.0000
 6466,0.00000066,-0.00001525,0.00000253,-0.00001421,-0.00000783,-0.0000
 1639,0.00000536,-0.00000897,0.00007445,0.00007290,0.00003918,0.0001141
 0,0.00000197,0.00011435,0.00000531,0.00008419,0.00002895,-0.00003333,-
 0.00003894,-0.00003770,-0.00004844,-0.00976562,0.00172426,0.00203337,-
 0.00652891,-0.01289872,0.01240529,-0.00097321,0.00392532,-0.00393050,0
 .05489158,0.04516068,-0.08754006,-0.00019660,-0.00037609,-0.00089876,0
 .02023643,0.00293715,-0.00453260,0.00059701,0.00061267,0.00080331,-0.0
 0016811,-0.00025795,-0.00020540,0.00023998,-0.00026201,-0.00043169,0.0
 0014760,-0.00029824,0.00039818,-0.00010681,0.00013225,0.00029328,0.000
 05690,-0.00020992,0.00050348,-0.00000316,0.00005623,-0.00000350,-0.001
 31173,-0.00023160,-0.00051858,0.00000981,0.00000669,-0.00000735,0.0001
 3281,0.00002422,-0.00001977,0.00000219,-0.00000175,0.00000866,0.000003
 91,0.00000200,0.00000138,-0.00000808,-0.00000416,-0.00000363,-0.000090
 76,-0.00002048,-0.00001275,-0.00007774,-0.00004991,0.00002884,-0.00000
 350,0.00000526,0.00002826,0.00005867,0.00004210,-0.00000793,-0.0000062
 7,-0.00000030,-0.00000046,-0.00000137,0.00000274,-0.00002360,0.0000069
 5,0.00001018,-0.00000102,0.00719999,-0.00891422,-0.00212335,-0.0009638
 4,0.00088589,0.00242810,-0.01336814,0.00001479,-0.01254430,-0.00053709
 ,0.00582619,-0.00083656,-0.00071156,-0.00035589,-0.00034804,0.00009702
 ,0.00009110,-0.00010427,0.00005514,-0.00002183,-0.00000143,-0.00040596
 ,0.00015049,0.00018014,0.00004906,-0.00000721,0.00003689,0.00007969,0.
 00003833,0.00001990,0.00037104,0.00046481,-0.00005163,-0.00056703,0.00
 015159,0.00038656,-0.00016157,-0.00026713,-0.00025848,-0.00062220,-0.0
 0136466,-0.00032922,-0.00003029,0.00007093,-0.00001209,0.00007609,-0.0
 0003677,0.00001311,0.00010453,0.00004445,-0.00003610,0.00005805,-0.000
 10987,0.00005664,0.00032859,0.00031067,0.00018384,0.00005274,-0.000027
 07,-0.00020223,0.00000169,-0.00005209,0.00001643,0.00002845,0.00007925
 ,0.00001786,0.00048634,0.00051622,-0.00095972,-0.00014573,-0.00003054,
 0.00023836,-0.00015725,-0.00106685,0.00096741,-0.04910410,-0.03634371,
 0.09444680,-0.00244352,0.00143444,-0.00115350,0.00079128,-0.00354886,-
 0.00191509,0.00188359,-0.00033204,0.00115432,-0.00222669,0.01239210,0.
 00736160,-0.00010282,0.00041114,0.00024774,0.00042263,-0.00167821,0.00
 084669,0.00164567,-0.00123794,0.00112266,-0.00086885,-0.00047503,-0.00
 057187,-0.00269984,-0.00009135,-0.00115167,0.00004500,-0.00528746,-0.0
 0331372,-0.30510105,0.09599129,-0.08566070,0.00112506,-0.00138877,-0.0
 0174035,0.00019050,-0.00009508,0.00018838,0.00036351,-0.00005373,0.000
 08838,0.00007373,0.00013403,0.00003928,0.00031205,-0.00261977,-0.00181
 630,-0.00016077,-0.00006081,0.00031288,-0.00091230,0.00166510,-0.00026
 416,-0.00011562,0.00137980,0.00078449,0.00006515,0.00029500,0.00023729
 ,0.00000816,0.00009356,0.00008569,0.00029527,-0.00008575,-0.00133083,0
 .00174551,-0.00173772,0.00036103,-0.00021262,0.00078588,-0.00000306,-0
 .00089633,-0.00164786,0.00099911,-0.00043804,0.00057944,0.00003569,0.0
 0252338,-0.00554736,0.00936102,-0.00903864,-0.00485508,0.00651829,0.00
 459514,0.00544456,-0.00838970,0.01033891,0.00033620,0.00103699,0.00079
 058,0.00036383,-0.00068179,0.00368084,-0.00035948,0.00152859,-0.000094
 72,-0.00065616,0.00098921,0.00023482,0.00072412,-0.00117060,0.00029351
 ,-0.00070418,0.00011186,0.00001000,-0.00008778,0.00028604,0.00040346,0
 .00003352,0.00048873,0.00038782,0.00016029,0.00032614,-0.00013282,0.00
 011989,0.00003302,-0.00010208,0.00001178,-0.00002574,-0.00015500,0.000
 00707,0.00005158,-0.00037625,-0.00032567,0.00021260,0.00001242,0.00000
 060,-0.00006664,-0.00003056,-0.00000602,-0.00000203,0.00004053,0.00003
 285,0.00000578,0.00023711,0.00027947,-0.00008264,0.00029166,0.00038180
 ,-0.00026141,0.00018268,-0.00017817,0.00006744,-0.00034861,-0.00036336
 ,0.00016086,0.00004689,0.00001447,-0.00001162,-0.00004228,-0.00002484,
 0.00001704,-0.00005162,-0.00000296,0.00001618,-0.00190682,0.00150601,0
 .00060372,0.00026945,-0.00017628,0.00012573,0.00334631,0.00007267,-0.0
 0109931,0.00070149,-0.00085404,-0.00058583,0.00005550,0.00007057,0.000
 09267,0.00004964,-0.00002195,-0.00000970,0.00001215,0.00002664,-0.0000
 4141,0.00015928,-0.00000946,-0.00003865,-0.00001631,-0.00001387,-0.000
 05671,-0.00006726,0.00000739,0.00000065,0.00024843,-0.00073355,-0.0009
 6598,-0.00009513,0.00018202,0.00072605,-0.00026301,0.00113856,0.000998
 17,-0.00004360,0.00034784,0.00041116,-0.00003949,0.00034730,-0.0001749
 2,0.00009988,0.00009670,-0.00004225,0.00011940,-0.00021414,-0.00009092
 ,0.00008194,-0.00003808,-0.00004373,-0.00020983,-0.00074019,-0.0005884
 2,-0.00001939,0.00001521,0.00009467,-0.00001804,0.00006124,0.00004548,
 0.00003471,-0.00005410,-0.00007013,0.00049035,-0.00067741,-0.00037453,
 -0.00008202,0.00028229,0.00019822,-0.00026869,0.00029462,0.00011103,-0
 .00388229,-0.00172905,0.00188322,0.29475751,0.00043028,-0.00095688,0.0
 0022248,0.00030812,-0.00396037,-0.00249524,-0.00128222,0.00022667,-0.0
 0076790,0.03345737,-0.02232639,0.00550893,-0.00014301,-0.00012910,0.00
 011858,0.00002634,-0.00063179,0.00084416,-0.00049843,0.00083706,-0.000
 43651,0.00049654,0.00049520,0.00023176,0.00244753,-0.00013599,0.001367
 01,0.00089260,0.00173811,0.00060692,0.06272485,-0.06248346,0.00048623,
 -0.00066841,-0.00077007,0.00047002,-0.00014935,0.00004311,-0.00011474,
 -0.00020235,0.00001922,-0.00006007,-0.00007107,-0.00007167,-0.00003058
 ,-0.00470406,0.00319179,-0.00124046,0.00018580,-0.00021440,-0.00011018
 ,0.00288660,-0.00047164,0.00192323,0.00172538,-0.00169428,-0.00068509,
 -0.00001891,-0.00013789,-0.00015553,0.00000916,-0.00006825,0.00011015,
 -0.00007798,0.00006547,0.00068493,-0.00061196,-0.00135271,-0.00004728,
 0.00025743,-0.00060485,0.00001571,-0.00126833,-0.00027405,0.00020192,0
 .00010171,0.00027359,0.00034769,-0.00276764,-0.01192011,0.00005635,-0.
 00145439,0.00172555,-0.00360807,0.00107886,-0.00183017,0.00104249,-0.0
 0337670,0.00007160,0.00072256,-0.00047934,-0.00045969,0.00022284,-0.00
 049638,0.00002469,0.00063013,0.00008391,-0.00010228,-0.00019903,-0.000
 06510,0.00023613,0.00034567,0.00001566,0.00008934,0.00005131,0.0000040
 8,0.00000080,-0.00004358,-0.00010635,0.00000812,-0.00014681,-0.0000510
 5,-0.00001546,-0.00004706,0.00002828,-0.00003264,-0.00002324,0.0000084
 7,-0.00000629,0.00000871,0.00007228,-0.00004240,-0.00000016,-0.0003429
 0,0.00017636,-0.00004987,-0.00003152,0.00003044,0.00002138,0.00002710,
 -0.00000401,-0.00000987,-0.00000227,-0.00001072,0.00000568,0.00024252,
 -0.00013249,0.00002349,0.00014104,-0.00007860,0.00001878,-0.00004858,0
 .00013679,-0.00008629,-0.00011945,0.00005890,0.00001199,0.00000715,-0.
 00000718,0.00000859,0.00000595,-0.00000710,0.00008564,0.00000368,-0.00
 007657,-0.00003220,0.00038066,-0.00014745,-0.00008047,-0.00006121,0.00
 003607,-0.00002913,-0.00068362,-0.00016946,0.00021437,-0.00020097,0.00
 002447,0.00008747,-0.00001184,-0.00001229,-0.00002113,-0.00001286,0.00
 000449,0.00000039,-0.00000729,-0.00001317,0.00000923,-0.00003500,0.000
 00063,0.00000726,0.00000466,0.00000528,0.00001064,0.00001779,-0.000005
 77,0.00000212,-0.00020359,0.00016869,0.00026082,0.00010920,-0.00004952
 ,-0.00018558,0.00012768,-0.00029885,-0.00027231,0.00003979,0.00000638,
 -0.00004903,0.00006952,-0.00003983,0.00010772,-0.00002827,0.00000248,-
 0.00004394,-0.00001083,0.00000096,0.00000080,-0.00004135,0.00001795,0.
 00001189,-0.00001415,0.00017120,0.00015626,0.00000003,-0.00000417,-0.0
 0001187,-0.00000225,-0.00000838,-0.00000462,-0.00001616,0.00001185,0.0
 0001864,-0.00011997,0.00009498,0.00005947,0.00003665,-0.00004804,-0.00
 002387,0.00006321,-0.00002279,-0.00002487,0.00077697,0.00077976,-0.000
 35334,-0.08880773,0.10105516,-0.00060645,-0.00004690,-0.00052868,-0.00
 015312,0.00034849,-0.00113014,-0.00000184,-0.00007085,0.00025227,0.018
 60661,-0.00428485,0.00230881,-0.00008323,0.00062283,-0.00001170,0.0001
 4791,0.00005230,0.00011903,0.00034639,-0.00011957,0.00026187,-0.000222
 90,0.00005977,0.00000150,0.00013716,0.00020273,-0.00075752,-0.00041330
 ,-0.00239723,0.00042528,-0.10405105,0.01632111,-0.04835832,0.00214826,
 -0.00544113,-0.00325918,0.00002421,-0.00000398,0.00003430,0.00002730,-
 0.00002586,-0.00003090,-0.00000193,0.00001743,0.00001741,-0.00161983,-
 0.00070985,-0.00000184,0.00025670,-0.00020333,-0.00017926,0.00054179,0
 .00116870,-0.00058688,0.00066182,0.00022118,-0.00046301,-0.00004116,-0
 .00006390,-0.00004196,0.00012356,0.00020623,0.00006385,-0.00066106,0.0
 0026334,-0.00066808,-0.00015958,-0.00034729,0.00194946,-0.00014106,0.0
 0037864,-0.00004443,0.00085861,0.00015276,-0.00004991,0.00006209,-0.00
 007230,-0.00042970,0.00517891,0.00023934,-0.01152931,0.00157676,-0.003
 15445,0.00488149,-0.00196268,0.00053017,-0.00263321,0.00494625,0.00114
 221,-0.00011771,0.00078603,0.00017325,-0.00060905,0.00073419,0.0008570
 9,-0.00063832,-0.00011927,-0.00018392,0.00004629,-0.00003445,0.0003269
 1,-0.00010076,0.00009296,-0.00018448,0.00005783,-0.00000250,-0.0000187
 2,0.00006825,0.00005160,0.00003256,0.00007974,0.00011516,0.00003979,0.
 00010188,-0.00003493,0.00001817,-0.00000079,-0.00003638,-0.00000264,-0
 .00000653,-0.00005803,-0.00000154,0.00001499,-0.00004356,-0.00010193,0
 .00007806,-0.00000168,0.00001140,-0.00001523,-0.00000132,-0.00000007,-
 0.00000372,0.00000647,0.00001005,-0.00000165,0.00002881,0.00007940,-0.
 00010179,0.00005748,0.00011291,-0.00009060,0.00009213,-0.00006276,0.00
 008266,-0.00013106,-0.00013221,0.00015908,0.00000925,0.00000759,-0.000
 01221,-0.00002407,0.00000174,-0.00003092,-0.00001503,0.00000464,0.0000
 0305,-0.00058855,0.00061333,0.00024032,0.00008544,-0.00007152,0.000044
 63,0.00117732,0.00000425,-0.00045753,0.00016478,-0.00035757,-0.0002416
 8,0.00002135,0.00002339,0.00003317,0.00001467,-0.00000583,-0.00000688,
 0.00000120,0.00000555,-0.00001093,0.00004553,-0.00000536,-0.00001419,-
 0.00000282,-0.00000319,-0.00002275,-0.00001764,0.00000142,0.00000185,-
 0.00007378,-0.00014178,-0.00029626,0.00011284,0.00001070,0.00032917,-0
 .00001865,0.00024857,0.00024016,0.00002060,0.00014341,0.00017416,0.000
 00737,0.00011632,-0.00000236,-0.00001263,0.00003977,-0.00012575,0.0000
 1548,-0.00003623,-0.00004819,0.00000657,-0.00000872,-0.00001263,-0.000
 09178,-0.00016724,-0.00016276,-0.00000430,0.00000580,0.00003707,-0.000
 01192,0.00002353,0.00001796,0.00000465,-0.00001696,-0.00001675,0.00013
 877,-0.00020854,-0.00015058,-0.00001615,0.00007852,0.00009313,-0.00007
 496,0.00009925,0.00004513,-0.00132890,-0.00051140,0.00097615,0.0734285
 5,-0.00585243,0.06076258\\0.00000063,-0.00001054,0.00000040,-0.0010594
 6,-0.00042204,-0.00039696,0.00000068,0.00000755,0.00000409,0.00000134,
 -0.00000163,0.00000116,-0.00000003,-0.00000133,0.00000187,-0.00000107,
 0.00000126,0.00000124,-0.00000290,0.00000222,-0.00000130,-0.00217487,0
 .00213413,-0.00183522,-0.00000287,0.00000458,-0.00000832,0.00000013,-0
 .00000079,-0.00000022,-0.00000537,0.00000215,0.00000136,-0.00000016,-0
 .00000139,-0.00000153,-0.00000089,0.00000122,-0.00000308,-0.00000069,0
 .00000043,-0.00000091,-0.00000056,0.00000084,0.00000021,0.00000517,0.0
 0000186,0.00000615,0.00000075,0.00000538,0.00000115,-0.00000015,-0.000
 00258,-0.00000224,-0.00000148,-0.00000932,-0.00000587,0.00000024,-0.00
 000021,-0.00000047,0.00000009,-0.00000107,-0.00000066,0.00000103,-0.00
 000163,0.00000059,-0.00000048,-0.00000084,-0.00000033,0.00000057,-0.00
 000044,-0.00000024,-0.00000048,0.00000045,0.,-0.00000006,0.00000043,0.
 00000029,-0.00000194,-0.00000445,-0.00000172,-0.00000347,0.00000033,-0
 .00000392,-0.00000155,0.00000548,0.00000328,-0.00000094,-0.00000161,0.
 00001135,0.00000045,-0.00000007,-0.00000072,-0.00000064,-0.00000339,-0
 .00000580,0.00000024,-0.00000071,-0.00000004,0.00000047,-0.00000319,-0
 .00000005,0.00383190,0.00134765,0.00418799,-0.00000031,0.00000093,0.00
 000089,0.00000143,0.00000014,-0.00000051,-0.00000080,0.00000115,-0.000
 00053,-0.00000023,0.00000062,0.00000015,-0.00000009,0.00000069,0.00000
 039,-0.00160992,-0.00054043,0.00045698,-0.00000373,-0.00000035,-0.0000
 0495,0.00000158,0.00000192,-0.00000002,0.00000114,0.00000325,0.0000006
 9,0.00000119,-0.00000014,0.00000325,0.00003167,-0.00002296,0.00000209,
 -0.00000109,0.00000027,0.00000137,-0.00032253,-0.00045261,0.00017044,-
 0.00002684,0.00001716,0.00000893,-0.00000446,-0.00000302,0.00000269,0.
 00000085,-0.00000078,0.00000083,0.00000093,-0.00000240,-0.00000190,-0.
 00000055,-0.00000631,0.00000075,0.00000242,-0.00000422,-0.00000118,-0.
 00000406,0.00000407,0.00000022,-0.00000375,0.00000400,-0.00000566,0.00
 049259,0.00051212,-0.00003949,-0.00000042,0.00000170,0.00000030,-0.000
 00071,0.00000059,0.00000005,0.00000032,-0.00000034,0.00000007,0.000000
 91,-0.00000021,-0.00000043,0.00000046,-0.00000075,-0.00000025,0.000004
 48,-0.00000333,-0.00000422,0.00057530,-0.00176507,-0.00111780,-0.00000
 109,0.00000543,0.00000157,0.00000244,0.00000570,0.00000623,0.00000050,
 -0.00000052,-0.00000048,0.00000059,-0.00000022,-0.00000019,0.00000027,
 0.00000037,-0.00000047,0.00025969,-0.00080195,-0.00143036,-0.00000012,
 -0.00000303,-0.00000038,0.00000018,-0.00000020,0.00000065,0.00000106,-
 0.00000067,-0.00000012,0.00000018,-0.00000020,0.00000078,0.00000039,0.
 00000396,0.00000138,0.00000091,-0.00000028,-0.00000088,-0.00000117,-0.
 00000800,0.00000206,0.00000652,0.00000498,-0.00000494,0.00001025,0.000
 00022,0.00000046\\\@


 Ideas are like rabbits. You get a couple and learn
 how to handle them, and pretty soon you have a dozen.
                                    -- John Steinbeck
 Job cpu time:       0 days  8 hours  3 minutes 50.7 seconds.
 File lengths (MBytes):  RWF=   4198 Int=      0 D2E=      0 Chk=     34 Scr=      1
 Normal termination of Gaussian 09 at Thu Aug 27 17:45:25 2020.
