 Entering Gaussian System, Link 0=g09
 Initial command:
 /global/apps/Gaussian/09.d01/l1.exe "/global/work/bentesirinbarge/2565597/Gau-28398.inp" -scrdir="/global/work/bentesirinbarge/2565597/"
 Entering Link 1 = /global/apps/Gaussian/09.d01/l1.exe PID=     28399.
  
 Copyright (c) 1988,1990,1992,1993,1995,1998,2003,2009,2013,
            Gaussian, Inc.  All Rights Reserved.
  
 This is part of the Gaussian(R) 09 program.  It is based on
 the Gaussian(R) 03 system (copyright 2003, Gaussian, Inc.),
 the Gaussian(R) 98 system (copyright 1998, Gaussian, Inc.),
 the Gaussian(R) 94 system (copyright 1995, Gaussian, Inc.),
 the Gaussian 92(TM) system (copyright 1992, Gaussian, Inc.),
 the Gaussian 90(TM) system (copyright 1990, Gaussian, Inc.),
 the Gaussian 88(TM) system (copyright 1988, Gaussian, Inc.),
 the Gaussian 86(TM) system (copyright 1986, Carnegie Mellon
 University), and the Gaussian 82(TM) system (copyright 1983,
 Carnegie Mellon University). Gaussian is a federally registered
 trademark of Gaussian, Inc.
  
 This software contains proprietary and confidential information,
 including trade secrets, belonging to Gaussian, Inc.
  
 This software is provided under written license and may be
 used, copied, transmitted, or stored only in accord with that
 written license.
  
 The following legend is applicable only to US Government
 contracts under FAR:
  
                    RESTRICTED RIGHTS LEGEND
  
 Use, reproduction and disclosure by the US Government is
 subject to restrictions as set forth in subparagraphs (a)
 and (c) of the Commercial Computer Software - Restricted
 Rights clause in FAR 52.227-19.
  
 Gaussian, Inc.
 340 Quinnipiac St., Bldg. 40, Wallingford CT 06492
  
  
 ---------------------------------------------------------------
 Warning -- This program may not be used in any manner that
 competes with the business of Gaussian, Inc. or will provide
 assistance to any competitor of Gaussian, Inc.  The licensee
 of this program is prohibited from giving any competitor of
 Gaussian, Inc. access to this program.  By using this program,
 the user acknowledges that Gaussian, Inc. is engaged in the
 business of creating and licensing software in the field of
 computational chemistry and represents and warrants to the
 licensee that it is not a competitor of Gaussian, Inc. and that
 it will not use this program in any manner prohibited above.
 ---------------------------------------------------------------
  

 Cite this work as:
 Gaussian 09, Revision D.01,
 M. J. Frisch, G. W. Trucks, H. B. Schlegel, G. E. Scuseria, 
 M. A. Robb, J. R. Cheeseman, G. Scalmani, V. Barone, B. Mennucci, 
 G. A. Petersson, H. Nakatsuji, M. Caricato, X. Li, H. P. Hratchian, 
 A. F. Izmaylov, J. Bloino, G. Zheng, J. L. Sonnenberg, M. Hada, 
 M. Ehara, K. Toyota, R. Fukuda, J. Hasegawa, M. Ishida, T. Nakajima, 
 Y. Honda, O. Kitao, H. Nakai, T. Vreven, J. A. Montgomery, Jr., 
 J. E. Peralta, F. Ogliaro, M. Bearpark, J. J. Heyd, E. Brothers, 
 K. N. Kudin, V. N. Staroverov, T. Keith, R. Kobayashi, J. Normand, 
 K. Raghavachari, A. Rendell, J. C. Burant, S. S. Iyengar, J. Tomasi, 
 M. Cossi, N. Rega, J. M. Millam, M. Klene, J. E. Knox, J. B. Cross, 
 V. Bakken, C. Adamo, J. Jaramillo, R. Gomperts, R. E. Stratmann, 
 O. Yazyev, A. J. Austin, R. Cammi, C. Pomelli, J. W. Ochterski, 
 R. L. Martin, K. Morokuma, V. G. Zakrzewski, G. A. Voth, 
 P. Salvador, J. J. Dannenberg, S. Dapprich, A. D. Daniels, 
 O. Farkas, J. B. Foresman, J. V. Ortiz, J. Cioslowski, 
 and D. J. Fox, Gaussian, Inc., Wallingford CT, 2013.
 
 ******************************************
 Gaussian 09:  EM64L-G09RevD.01 24-Apr-2013
                27-Aug-2020 
 ******************************************
 %LindaWorkers=cib35-8
 %NProcShared=20
 Will use up to   20 processors via shared memory.
 %mem=16GB
 SetLPE:  input flags=""
 SetLPE:    new flags=" -nodelist 'cib35-8.ibnet'"
 Will use up to    1 processors via Linda.
 --------------------------------------------------------
 #p freq=noraman b3lyp/6-31g(d,p) empiricaldispersion=gd3
 --------------------------------------------------------
 1/10=4,30=1,38=1/1,3;
 2/12=2,17=6,18=5,40=1/2;
 3/5=1,6=6,7=101,11=2,16=1,25=1,30=1,71=2,74=-5,124=31,140=1/1,2,3;
 4//1;
 5/5=2,38=5,98=1/2;
 8/6=4,10=90,11=11/1;
 11/6=1,8=1,9=11,15=111,16=1/1,2,10;
 10/6=1/2;
 6/7=2,8=2,9=2,10=2,18=1,28=1/1;
 7/8=1,10=1,25=1/1,2,3,16;
 1/10=4,30=1/3;
 99//99;
 Leave Link    1 at Thu Aug 27 09:47:50 2020, MaxMem=  2147483648 cpu:         4.4
 (Enter /global/apps/Gaussian/09.d01/l101.exe)
 -------------------
 Title Card Required
 -------------------
 Symbolic Z-matrix:
 Charge = -1 Multiplicity = 1
 C                    -3.83958   3.4201   -1.23369 
 C                    -2.59843   3.3771   -0.3322 
 N                    -4.72898   2.40386  -1.14882 
 C                    -2.44295   2.24507   0.68119 
 H                    -1.72627   3.39321  -0.99611 
 H                    -2.59589   4.34071   0.19229 
 O                    -4.00258   4.38461  -1.98633 
 C                    -5.93217   2.45021  -1.96121 
 H                    -4.55887   1.57242  -0.56234 
 H                    -1.67852   2.52917   1.42145 
 O                    -2.02377   1.04386   0.04192 
 H                    -3.37823   2.06083   1.21949 
 H                    -5.68731   2.5629   -3.02321 
 H                    -6.5669    3.30001  -1.68314 
 H                    -6.48969   1.52306  -1.8142 
 C                    -2.9645   -0.20157   0.15558 
 C                    -2.74377  -0.89138  -1.18707 
 O                    -2.2926   -1.0401    1.13305 
 O                    -4.17259   0.14473   0.46063 
 H                    -1.6874   -1.11597  -1.35743 
 H                    -3.3169   -1.82161  -1.20209 
 H                    -3.10793  -0.23141  -1.97668 
 C                    -2.56066  -0.68124   2.47777 
 H                    -2.16674  -1.48572   3.10668 
 H                    -2.06043   0.26017   2.75608 
 H                    -3.6345   -0.56389   2.65503 
 N                     0.44847   0.64476   0.77172 
 C                     1.38404   1.36962   0.15345 
 C                     1.05334  -0.03183   1.80931 
 N                     2.56268   1.18362   0.74781 
 H                     1.20546   2.00632  -0.69853 
 C                     2.38804   0.30112   1.80045 
 H                     0.49255  -0.69435   2.44785 
 C                     3.52531  -0.15318   2.66518 
 C                     4.31853   1.00044   3.30972 
 H                     3.11392  -0.80679   3.44244 
 H                     4.20962  -0.77065   2.07155 
 H                     5.15922   0.60046   3.88449 
 H                     3.68617   1.58635   3.98565 
 H                     4.71366   1.67543   2.54634 
 C                    -7.48463  -0.92575  -0.2142 
 C                    -6.93271  -2.28527   0.2119 
 H                    -6.77664  -0.11051  -0.04766 
 H                    -8.41003  -0.73319   0.33563 
 H                    -7.7409   -0.97048  -1.27772 
 N                    -5.63448  -2.27657   0.59267 
 O                    -7.62954  -3.30244   0.19058 
 C                    -4.96274  -3.50131   0.98517 
 H                    -5.1049   -1.39371   0.58376 
 H                    -5.10144  -4.28075   0.22817 
 H                    -5.35429  -3.89354   1.93269 
 H                    -3.89852  -3.28144   1.09732 
 C                     5.64513   1.39403  -0.11692 
 C                     7.10126   1.8634   -0.14595 
 O                     4.77855   2.28516   0.16297 
 O                     5.38665   0.18223  -0.33488 
 C                     8.08148   0.83768  -0.71015 
 H                     7.36512   2.12816   0.88666 
 H                     7.13086   2.80502  -0.70585 
 H                     9.1091    1.21626  -0.68047 
 H                     7.83728   0.5928   -1.74829 
 H                     8.03869  -0.09566  -0.14271 
 N                     3.56008  -1.78416  -1.37301 
 C                     2.11625  -1.87542  -1.24224 
 C                     4.22655  -2.54462  -2.29881 
 H                     4.0318   -0.95734  -1.00286 
 H                     1.82192  -1.65741  -0.21353 
 H                     1.59212  -1.17806  -1.90999 
 H                     1.80547  -2.88758  -1.50429 
 C                     5.72046  -2.26775  -2.38662 
 O                     3.67833  -3.4193   -2.9653 
 H                     5.93075  -1.19534  -2.39773 
 H                     6.21864  -2.67133  -1.49919 
 H                     6.11202  -2.75129  -3.28198 
 O                     5.73729  -2.23377   0.9569 
 H                     4.94192  -2.53913   0.49671 
 H                     5.85367  -1.34786   0.56059 
 H                     3.53644   1.66317   0.44377 
 H                    -0.58572   0.66153   0.4983 
 
 NAtoms=     79 NQM=       79 NQMF=       0 NMMI=      0 NMMIF=      0
                NMic=       0 NMicF=      0.
                    Isotopes and Nuclear Properties:
 (Nuclear quadrupole moments (NQMom) in fm**2, nuclear magnetic moments (NMagM)
  in nuclear magnetons)

  Atom         1           2           3           4           5           6           7           8           9          10
 IAtWgt=          12          12          14          12           1           1          16          12           1           1
 AtmWgt=  12.0000000  12.0000000  14.0030740  12.0000000   1.0078250   1.0078250  15.9949146  12.0000000   1.0078250   1.0078250
 NucSpn=           0           0           2           0           1           1           0           0           1           1
 AtZEff=   0.0000000   0.0000000   0.0000000   0.0000000   0.0000000   0.0000000   0.0000000   0.0000000   0.0000000   0.0000000
 NQMom=    0.0000000   0.0000000   2.0440000   0.0000000   0.0000000   0.0000000   0.0000000   0.0000000   0.0000000   0.0000000
 NMagM=    0.0000000   0.0000000   0.4037610   0.0000000   2.7928460   2.7928460   0.0000000   0.0000000   2.7928460   2.7928460
 AtZNuc=   6.0000000   6.0000000   7.0000000   6.0000000   1.0000000   1.0000000   8.0000000   6.0000000   1.0000000   1.0000000

  Atom        11          12          13          14          15          16          17          18          19          20
 IAtWgt=          16           1           1           1           1          12          12          16          16           1
 AtmWgt=  15.9949146   1.0078250   1.0078250   1.0078250   1.0078250  12.0000000  12.0000000  15.9949146  15.9949146   1.0078250
 NucSpn=           0           1           1           1           1           0           0           0           0           1
 AtZEff=   0.0000000   0.0000000   0.0000000   0.0000000   0.0000000   0.0000000   0.0000000   0.0000000   0.0000000   0.0000000
 NQMom=    0.0000000   0.0000000   0.0000000   0.0000000   0.0000000   0.0000000   0.0000000   0.0000000   0.0000000   0.0000000
 NMagM=    0.0000000   2.7928460   2.7928460   2.7928460   2.7928460   0.0000000   0.0000000   0.0000000   0.0000000   2.7928460
 AtZNuc=   8.0000000   1.0000000   1.0000000   1.0000000   1.0000000   6.0000000   6.0000000   8.0000000   8.0000000   1.0000000

  Atom        21          22          23          24          25          26          27          28          29          30
 IAtWgt=           1           1          12           1           1           1          14          12          12          14
 AtmWgt=   1.0078250   1.0078250  12.0000000   1.0078250   1.0078250   1.0078250  14.0030740  12.0000000  12.0000000  14.0030740
 NucSpn=           1           1           0           1           1           1           2           0           0           2
 AtZEff=   0.0000000   0.0000000   0.0000000   0.0000000   0.0000000   0.0000000   0.0000000   0.0000000   0.0000000   0.0000000
 NQMom=    0.0000000   0.0000000   0.0000000   0.0000000   0.0000000   0.0000000   2.0440000   0.0000000   0.0000000   2.0440000
 NMagM=    2.7928460   2.7928460   0.0000000   2.7928460   2.7928460   2.7928460   0.4037610   0.0000000   0.0000000   0.4037610
 AtZNuc=   1.0000000   1.0000000   6.0000000   1.0000000   1.0000000   1.0000000   7.0000000   6.0000000   6.0000000   7.0000000

  Atom        31          32          33          34          35          36          37          38          39          40
 IAtWgt=           1          12           1          12          12           1           1           1           1           1
 AtmWgt=   1.0078250  12.0000000   1.0078250  12.0000000  12.0000000   1.0078250   1.0078250   1.0078250   1.0078250   1.0078250
 NucSpn=           1           0           1           0           0           1           1           1           1           1
 AtZEff=   0.0000000   0.0000000   0.0000000   0.0000000   0.0000000   0.0000000   0.0000000   0.0000000   0.0000000   0.0000000
 NQMom=    0.0000000   0.0000000   0.0000000   0.0000000   0.0000000   0.0000000   0.0000000   0.0000000   0.0000000   0.0000000
 NMagM=    2.7928460   0.0000000   2.7928460   0.0000000   0.0000000   2.7928460   2.7928460   2.7928460   2.7928460   2.7928460
 AtZNuc=   1.0000000   6.0000000   1.0000000   6.0000000   6.0000000   1.0000000   1.0000000   1.0000000   1.0000000   1.0000000

  Atom        41          42          43          44          45          46          47          48          49          50
 IAtWgt=          12          12           1           1           1          14          16          12           1           1
 AtmWgt=  12.0000000  12.0000000   1.0078250   1.0078250   1.0078250  14.0030740  15.9949146  12.0000000   1.0078250   1.0078250
 NucSpn=           0           0           1           1           1           2           0           0           1           1
 AtZEff=   0.0000000   0.0000000   0.0000000   0.0000000   0.0000000   0.0000000   0.0000000   0.0000000   0.0000000   0.0000000
 NQMom=    0.0000000   0.0000000   0.0000000   0.0000000   0.0000000   2.0440000   0.0000000   0.0000000   0.0000000   0.0000000
 NMagM=    0.0000000   0.0000000   2.7928460   2.7928460   2.7928460   0.4037610   0.0000000   0.0000000   2.7928460   2.7928460
 AtZNuc=   6.0000000   6.0000000   1.0000000   1.0000000   1.0000000   7.0000000   8.0000000   6.0000000   1.0000000   1.0000000

  Atom        51          52          53          54          55          56          57          58          59          60
 IAtWgt=           1           1          12          12          16          16          12           1           1           1
 AtmWgt=   1.0078250   1.0078250  12.0000000  12.0000000  15.9949146  15.9949146  12.0000000   1.0078250   1.0078250   1.0078250
 NucSpn=           1           1           0           0           0           0           0           1           1           1
 AtZEff=   0.0000000   0.0000000   0.0000000   0.0000000   0.0000000   0.0000000   0.0000000   0.0000000   0.0000000   0.0000000
 NQMom=    0.0000000   0.0000000   0.0000000   0.0000000   0.0000000   0.0000000   0.0000000   0.0000000   0.0000000   0.0000000
 NMagM=    2.7928460   2.7928460   0.0000000   0.0000000   0.0000000   0.0000000   0.0000000   2.7928460   2.7928460   2.7928460
 AtZNuc=   1.0000000   1.0000000   6.0000000   6.0000000   8.0000000   8.0000000   6.0000000   1.0000000   1.0000000   1.0000000

  Atom        61          62          63          64          65          66          67          68          69          70
 IAtWgt=           1           1          14          12          12           1           1           1           1          12
 AtmWgt=   1.0078250   1.0078250  14.0030740  12.0000000  12.0000000   1.0078250   1.0078250   1.0078250   1.0078250  12.0000000
 NucSpn=           1           1           2           0           0           1           1           1           1           0
 AtZEff=   0.0000000   0.0000000   0.0000000   0.0000000   0.0000000   0.0000000   0.0000000   0.0000000   0.0000000   0.0000000
 NQMom=    0.0000000   0.0000000   2.0440000   0.0000000   0.0000000   0.0000000   0.0000000   0.0000000   0.0000000   0.0000000
 NMagM=    2.7928460   2.7928460   0.4037610   0.0000000   0.0000000   2.7928460   2.7928460   2.7928460   2.7928460   0.0000000
 AtZNuc=   1.0000000   1.0000000   7.0000000   6.0000000   6.0000000   1.0000000   1.0000000   1.0000000   1.0000000   6.0000000

  Atom        71          72          73          74          75          76          77          78          79
 IAtWgt=          16           1           1           1          16           1           1           1           1
 AtmWgt=  15.9949146   1.0078250   1.0078250   1.0078250  15.9949146   1.0078250   1.0078250   1.0078250   1.0078250
 NucSpn=           0           1           1           1           0           1           1           1           1
 AtZEff=   0.0000000   0.0000000   0.0000000   0.0000000   0.0000000   0.0000000   0.0000000   0.0000000   0.0000000
 NQMom=    0.0000000   0.0000000   0.0000000   0.0000000   0.0000000   0.0000000   0.0000000   0.0000000   0.0000000
 NMagM=    0.0000000   2.7928460   2.7928460   2.7928460   0.0000000   2.7928460   2.7928460   2.7928460   2.7928460
 AtZNuc=   8.0000000   1.0000000   1.0000000   1.0000000   8.0000000   1.0000000   1.0000000   1.0000000   1.0000000
 Leave Link  101 at Thu Aug 27 09:47:51 2020, MaxMem=  2147483648 cpu:         3.8
 (Enter /global/apps/Gaussian/09.d01/l103.exe)

 GradGradGradGradGradGradGradGradGradGradGradGradGradGradGradGradGradGrad
 Berny optimization.
 Initialization pass.
 Trust Radius=3.00D-01 FncErr=1.00D-07 GrdErr=1.00D-07
 Number of steps in this run=      2 maximum allowed number of steps=      2.
 GradGradGradGradGradGradGradGradGradGradGradGradGradGradGradGradGradGrad

 Leave Link  103 at Thu Aug 27 09:47:51 2020, MaxMem=  2147483648 cpu:         0.6
 (Enter /global/apps/Gaussian/09.d01/l202.exe)
 Stoichiometry    C21H44N5O9(1-)
 Framework group  C1[X(C21H44N5O9)]
 Deg. of freedom   231
 Full point group                 C1      NOp   1
 Largest Abelian subgroup         C1      NOp   1
 Largest concise Abelian subgroup C1      NOp   1
                         Standard orientation:                         
 ---------------------------------------------------------------------
 Center     Atomic      Atomic             Coordinates (Angstroms)
 Number     Number       Type             X           Y           Z
 ---------------------------------------------------------------------
      1          6           0       -3.839584    3.420095   -1.233689
      2          6           0       -2.598433    3.377104   -0.332195
      3          7           0       -4.728983    2.403862   -1.148825
      4          6           0       -2.442955    2.245074    0.681187
      5          1           0       -1.726265    3.393208   -0.996106
      6          1           0       -2.595894    4.340709    0.192290
      7          8           0       -4.002585    4.384608   -1.986333
      8          6           0       -5.932169    2.450208   -1.961205
      9          1           0       -4.558869    1.572420   -0.562340
     10          1           0       -1.678517    2.529174    1.421449
     11          8           0       -2.023771    1.043857    0.041922
     12          1           0       -3.378226    2.060830    1.219490
     13          1           0       -5.687305    2.562901   -3.023214
     14          1           0       -6.566896    3.300005   -1.683135
     15          1           0       -6.489694    1.523056   -1.814196
     16          6           0       -2.964501   -0.201572    0.155581
     17          6           0       -2.743771   -0.891377   -1.187070
     18          8           0       -2.292601   -1.040100    1.133052
     19          8           0       -4.172593    0.144729    0.460630
     20          1           0       -1.687397   -1.115965   -1.357426
     21          1           0       -3.316898   -1.821609   -1.202089
     22          1           0       -3.107930   -0.231410   -1.976682
     23          6           0       -2.560662   -0.681242    2.477770
     24          1           0       -2.166743   -1.485719    3.106683
     25          1           0       -2.060426    0.260171    2.756081
     26          1           0       -3.634503   -0.563894    2.655028
     27          7           0        0.448468    0.644755    0.771723
     28          6           0        1.384036    1.369617    0.153452
     29          6           0        1.053342   -0.031830    1.809307
     30          7           0        2.562684    1.183617    0.747810
     31          1           0        1.205456    2.006318   -0.698532
     32          6           0        2.388043    0.301118    1.800448
     33          1           0        0.492550   -0.694345    2.447847
     34          6           0        3.525314   -0.153181    2.665177
     35          6           0        4.318534    1.000444    3.309720
     36          1           0        3.113923   -0.806792    3.442436
     37          1           0        4.209616   -0.770651    2.071547
     38          1           0        5.159224    0.600459    3.884488
     39          1           0        3.686172    1.586354    3.985646
     40          1           0        4.713659    1.675426    2.546340
     41          6           0       -7.484626   -0.925753   -0.214197
     42          6           0       -6.932715   -2.285274    0.211904
     43          1           0       -6.776636   -0.110514   -0.047662
     44          1           0       -8.410030   -0.733192    0.335632
     45          1           0       -7.740900   -0.970480   -1.277717
     46          7           0       -5.634485   -2.276568    0.592674
     47          8           0       -7.629536   -3.302437    0.190583
     48          6           0       -4.962743   -3.501310    0.985169
     49          1           0       -5.104897   -1.393712    0.583758
     50          1           0       -5.101442   -4.280752    0.228167
     51          1           0       -5.354289   -3.893538    1.932687
     52          1           0       -3.898515   -3.281438    1.097319
     53          6           0        5.645129    1.394030   -0.116923
     54          6           0        7.101263    1.863404   -0.145949
     55          8           0        4.778545    2.285160    0.162972
     56          8           0        5.386650    0.182225   -0.334876
     57          6           0        8.081481    0.837679   -0.710146
     58          1           0        7.365124    2.128163    0.886663
     59          1           0        7.130864    2.805015   -0.705846
     60          1           0        9.109101    1.216258   -0.680473
     61          1           0        7.837281    0.592803   -1.748291
     62          1           0        8.038691   -0.095663   -0.142706
     63          7           0        3.560078   -1.784164   -1.373008
     64          6           0        2.116245   -1.875417   -1.242243
     65          6           0        4.226554   -2.544622   -2.298807
     66          1           0        4.031799   -0.957343   -1.002865
     67          1           0        1.821922   -1.657410   -0.213530
     68          1           0        1.592123   -1.178062   -1.909986
     69          1           0        1.805472   -2.887581   -1.504287
     70          6           0        5.720455   -2.267745   -2.386623
     71          8           0        3.678327   -3.419296   -2.965295
     72          1           0        5.930753   -1.195338   -2.397726
     73          1           0        6.218636   -2.671327   -1.499190
     74          1           0        6.112019   -2.751286   -3.281976
     75          8           0        5.737287   -2.233768    0.956897
     76          1           0        4.941919   -2.539128    0.496711
     77          1           0        5.853667   -1.347858    0.560592
     78          1           0        3.536444    1.663168    0.443768
     79          1           0       -0.585717    0.661526    0.498299
 ---------------------------------------------------------------------
 Rotational constants (GHZ):      0.1529925      0.0425043      0.0388314
 Leave Link  202 at Thu Aug 27 09:47:52 2020, MaxMem=  2147483648 cpu:         1.1
 (Enter /global/apps/Gaussian/09.d01/l301.exe)
 Standard basis: 6-31G(d,p) (6D, 7F)
 Ernie: Thresh=  0.10000D-02 Tol=  0.10000D-05 Strict=F.
 There are   745 symmetry adapted cartesian basis functions of A   symmetry.
 There are   745 symmetry adapted basis functions of A   symmetry.
   745 basis functions,  1288 primitive gaussians,   745 cartesian basis functions
   139 alpha electrons      139 beta electrons
       nuclear repulsion energy      4054.8614598718 Hartrees.
 IExCor=  402 DFT=T Ex+Corr=B3LYP ExCW=0 ScaHFX=  0.200000
 ScaDFX=  0.800000  0.720000  1.000000  0.810000 ScalE2=  1.000000  1.000000
 IRadAn=      0 IRanWt=     -1 IRanGd=            0 ICorTp=0 IEmpDi=131
 NAtoms=   79 NActive=   79 NUniq=   79 SFac= 1.00D+00 NAtFMM=   60 NAOKFM=T Big=T
 Integral buffers will be    131072 words long.
 Raffenetti 2 integral format.
 Two-electron integral symmetry is turned on.
 R6Disp:  Grimme-D3 Dispersion energy=       -0.0956855824 Hartrees.
 Nuclear repulsion after empirical dispersion term =     4054.7657742895 Hartrees.
 Leave Link  301 at Thu Aug 27 09:47:52 2020, MaxMem=  2147483648 cpu:         1.8
 (Enter /global/apps/Gaussian/09.d01/l302.exe)
 NPDir=0 NMtPBC=     1 NCelOv=     1 NCel=       1 NClECP=     1 NCelD=      1
         NCelK=      1 NCelE2=     1 NClLst=     1 CellRange=     0.0.
 One-electron integrals computed using PRISM.
 NBasis=   745 RedAO= T EigKep=  1.12D-03  NBF=   745
 NBsUse=   745 1.00D-06 EigRej= -1.00D+00 NBFU=   745
 Precomputing XC quadrature grid using
 IXCGrd= 4 IRadAn=           0 IRanWt=          -1 IRanGd=           0 AccXCQ= 0.00D+00.
 Generated NRdTot=       0 NPtTot=           0 NUsed=           0 NTot=          32
 NSgBfM=   662   662   662   671   671 MxSgAt=    79 MxSgA2=    79.
 Leave Link  302 at Thu Aug 27 09:47:54 2020, MaxMem=  2147483648 cpu:        35.8
 (Enter /global/apps/Gaussian/09.d01/l303.exe)
 DipDrv:  MaxL=1.
 Leave Link  303 at Thu Aug 27 09:47:54 2020, MaxMem=  2147483648 cpu:         2.5
 (Enter /global/apps/Gaussian/09.d01/l401.exe)
 ExpMin= 1.61D-01 ExpMax= 5.48D+03 ExpMxC= 8.25D+02 IAcc=1 IRadAn=         1 AccDes= 0.00D+00
 Harris functional with IExCor=  402 and IRadAn=       1 diagonalized for initial guess.
 HarFok:  IExCor=  402 AccDes= 0.00D+00 IRadAn=         1 IDoV= 1 UseB2=F ITyADJ=14
 ICtDFT=  3500011 ScaDFX=  1.000000  1.000000  1.000000  1.000000
 FoFCou: FMM=F IPFlag=           0 FMFlag=      100000 FMFlg1=        2001
         NFxFlg=           0 DoJE=T BraDBF=F KetDBF=T FulRan=T
         wScrn=  0.000000 ICntrl=     500 IOpCl=  0 I1Cent=   200000004 NGrid=           0
         NMat0=    1 NMatS0=      1 NMatT0=    0 NMatD0=    1 NMtDS0=    0 NMtDT0=    0
 Petite list used in FoFCou.
 Harris En= -1778.12848958272    
 JPrj=0 DoOrth=F DoCkMO=F.
 Leave Link  401 at Thu Aug 27 09:47:57 2020, MaxMem=  2147483648 cpu:        46.8
 (Enter /global/apps/Gaussian/09.d01/l502.exe)
 Closed shell SCF:
 Using DIIS extrapolation, IDIIS=  1040.
 Integral symmetry usage will be decided dynamically.
 IVT=     1704170 IEndB=     1704170 NGot=  2147483648 MDV=  2146351889
 LenX=  2146351889 LenY=  2145796119
 Requested convergence on RMS density matrix=1.00D-08 within 128 cycles.
 Requested convergence on MAX density matrix=1.00D-06.
 Requested convergence on             energy=1.00D-06.
 No special actions if energy rises.
 Fock matrices will be formed incrementally for  20 cycles.
 Integral accuracy reduced to 1.0D-05 until final iterations.

 Cycle   1  Pass 0  IDiag  1:
 FoFJK:  IHMeth= 1 ICntrl=       0 DoSepK=F KAlg= 0 I1Cent=   0 FoldK=F
 IRaf= 660000000 NMat=   1 IRICut=       1 DoRegI=T DoRafI=F ISym2E= 0.
 FoFCou: FMM=T IPFlag=           0 FMFlag=      100000 FMFlg1=        2001
         NFxFlg=           0 DoJE=F BraDBF=F KetDBF=F FulRan=T
         wScrn=  0.000000 ICntrl=       0 IOpCl=  0 I1Cent=           0 NGrid=           0
         NMat0=    1 NMatS0=      1 NMatT0=    0 NMatD0=    1 NMtDS0=    0 NMtDT0=    0
 Symmetry not used in FoFCou.
 FMM levels:  10  Number of levels for PrismC:   9
 E= -1776.71500856444    
 DIIS: error= 2.87D-02 at cycle   1 NSaved=   1.
 NSaved= 1 IEnMin= 1 EnMin= -1776.71500856444     IErMin= 1 ErrMin= 2.87D-02
 ErrMax= 2.87D-02  0.00D+00 EMaxC= 1.00D-01 BMatC= 1.30D+00 BMatP= 1.30D+00
 IDIUse=3 WtCom= 7.13D-01 WtEn= 2.87D-01
 Coeff-Com:  0.100D+01
 Coeff-En:   0.100D+01
 Coeff:      0.100D+01
 Gap=     0.296 Goal=   None    Shift=    0.000
 GapD=    0.296 DampG=1.000 DampE=0.500 DampFc=0.5000 IDamp=-1.
 Damping current iteration by 5.00D-01
 RMSDP=3.50D-03 MaxDP=2.10D-01              OVMax= 2.77D-01

 Cycle   2  Pass 0  IDiag  1:
 RMSU=  1.75D-03    CP:  9.87D-01
 E= -1777.13457048584     Delta-E=       -0.419561921402 Rises=F Damp=T
 DIIS: error= 9.29D-03 at cycle   2 NSaved=   2.
 NSaved= 2 IEnMin= 2 EnMin= -1777.13457048584     IErMin= 2 ErrMin= 9.29D-03
 ErrMax= 9.29D-03  0.00D+00 EMaxC= 1.00D-01 BMatC= 1.28D-01 BMatP= 1.30D+00
 IDIUse=3 WtCom= 9.07D-01 WtEn= 9.29D-02
 Coeff-Com:  0.164D+00 0.836D+00
 Coeff-En:   0.249D+00 0.751D+00
 Coeff:      0.172D+00 0.828D+00
 Gap=     0.241 Goal=   None    Shift=    0.000
 RMSDP=9.44D-04 MaxDP=8.59D-02 DE=-4.20D-01 OVMax= 2.01D-01

 Cycle   3  Pass 0  IDiag  1:
 RMSU=  8.29D-04    CP:  9.80D-01  7.46D-01
 E= -1777.75418525277     Delta-E=       -0.619614766929 Rises=F Damp=F
 DIIS: error= 1.35D-02 at cycle   3 NSaved=   3.
 NSaved= 3 IEnMin= 3 EnMin= -1777.75418525277     IErMin= 2 ErrMin= 9.29D-03
 ErrMax= 1.35D-02  0.00D+00 EMaxC= 1.00D-01 BMatC= 1.30D-01 BMatP= 1.28D-01
 IDIUse=3 WtCom= 8.65D-01 WtEn= 1.35D-01
 Coeff-Com:  0.553D-01 0.501D+00 0.443D+00
 Coeff-En:   0.000D+00 0.000D+00 0.100D+01
 Coeff:      0.478D-01 0.434D+00 0.518D+00
 Gap=     0.220 Goal=   None    Shift=    0.000
 RMSDP=6.44D-04 MaxDP=5.53D-02 DE=-6.20D-01 OVMax= 1.02D-01

 Cycle   4  Pass 0  IDiag  1:
 RMSU=  3.51D-04    CP:  9.85D-01  8.44D-01  3.87D-01
 E= -1777.83722111392     Delta-E=       -0.083035861151 Rises=F Damp=F
 DIIS: error= 6.78D-03 at cycle   4 NSaved=   4.
 NSaved= 4 IEnMin= 4 EnMin= -1777.83722111392     IErMin= 4 ErrMin= 6.78D-03
 ErrMax= 6.78D-03  0.00D+00 EMaxC= 1.00D-01 BMatC= 3.35D-02 BMatP= 1.28D-01
 IDIUse=3 WtCom= 9.32D-01 WtEn= 6.78D-02
 Coeff-Com:  0.904D-02 0.922D-01 0.337D+00 0.562D+00
 Coeff-En:   0.000D+00 0.000D+00 0.238D+00 0.762D+00
 Coeff:      0.843D-02 0.859D-01 0.330D+00 0.576D+00
 Gap=     0.211 Goal=   None    Shift=    0.000
 RMSDP=2.61D-04 MaxDP=2.33D-02 DE=-8.30D-02 OVMax= 3.91D-02

 Cycle   5  Pass 0  IDiag  1:
 RMSU=  1.03D-04    CP:  9.84D-01  8.00D-01  5.87D-01  5.56D-01
 E= -1777.86225777922     Delta-E=       -0.025036665299 Rises=F Damp=F
 DIIS: error= 1.22D-03 at cycle   5 NSaved=   5.
 NSaved= 5 IEnMin= 5 EnMin= -1777.86225777922     IErMin= 5 ErrMin= 1.22D-03
 ErrMax= 1.22D-03  0.00D+00 EMaxC= 1.00D-01 BMatC= 2.35D-03 BMatP= 3.35D-02
 IDIUse=3 WtCom= 9.88D-01 WtEn= 1.22D-02
 Coeff-Com:  0.164D-02 0.126D-01 0.158D+00 0.348D+00 0.480D+00
 Coeff-En:   0.000D+00 0.000D+00 0.000D+00 0.000D+00 0.100D+01
 Coeff:      0.162D-02 0.124D-01 0.156D+00 0.343D+00 0.486D+00
 Gap=     0.210 Goal=   None    Shift=    0.000
 RMSDP=6.83D-05 MaxDP=4.25D-03 DE=-2.50D-02 OVMax= 9.50D-03

 Cycle   6  Pass 0  IDiag  1:
 RMSU=  2.66D-05    CP:  9.84D-01  8.07D-01  5.76D-01  6.36D-01  4.71D-01
 E= -1777.86411605460     Delta-E=       -0.001858275386 Rises=F Damp=F
 DIIS: error= 2.40D-04 at cycle   6 NSaved=   6.
 NSaved= 6 IEnMin= 6 EnMin= -1777.86411605460     IErMin= 6 ErrMin= 2.40D-04
 ErrMax= 2.40D-04  0.00D+00 EMaxC= 1.00D-01 BMatC= 1.08D-04 BMatP= 2.35D-03
 IDIUse=3 WtCom= 9.98D-01 WtEn= 2.40D-03
 Coeff-Com:  0.186D-03-0.133D-02 0.480D-01 0.116D+00 0.245D+00 0.592D+00
 Coeff-En:   0.000D+00 0.000D+00 0.000D+00 0.000D+00 0.000D+00 0.100D+01
 Coeff:      0.185D-03-0.133D-02 0.479D-01 0.116D+00 0.244D+00 0.593D+00
 Gap=     0.209 Goal=   None    Shift=    0.000
 RMSDP=1.61D-05 MaxDP=1.54D-03 DE=-1.86D-03 OVMax= 1.71D-03

 Cycle   7  Pass 0  IDiag  1:
 RMSU=  9.69D-06    CP:  9.84D-01  8.06D-01  5.77D-01  6.31D-01  5.36D-01
                    CP:  5.90D-01
 E= -1777.86418813383     Delta-E=       -0.000072079225 Rises=F Damp=F
 DIIS: error= 1.31D-04 at cycle   7 NSaved=   7.
 NSaved= 7 IEnMin= 7 EnMin= -1777.86418813383     IErMin= 7 ErrMin= 1.31D-04
 ErrMax= 1.31D-04  0.00D+00 EMaxC= 1.00D-01 BMatC= 1.97D-05 BMatP= 1.08D-04
 IDIUse=3 WtCom= 9.99D-01 WtEn= 1.31D-03
 Coeff-Com: -0.253D-05-0.179D-02 0.168D-01 0.423D-01 0.115D+00 0.374D+00
 Coeff-Com:  0.453D+00
 Coeff-En:   0.000D+00 0.000D+00 0.000D+00 0.000D+00 0.000D+00 0.889D-01
 Coeff-En:   0.911D+00
 Coeff:     -0.253D-05-0.178D-02 0.168D-01 0.423D-01 0.115D+00 0.374D+00
 Coeff:      0.453D+00
 Gap=     0.209 Goal=   None    Shift=    0.000
 RMSDP=6.06D-06 MaxDP=5.43D-04 DE=-7.21D-05 OVMax= 8.73D-04

 Initial convergence to 1.0D-05 achieved.  Increase integral accuracy.
 Cycle   8  Pass 1  IDiag  1:
 E= -1777.86448730524     Delta-E=       -0.000299171407 Rises=F Damp=F
 DIIS: error= 1.33D-04 at cycle   1 NSaved=   1.
 NSaved= 1 IEnMin= 1 EnMin= -1777.86448730524     IErMin= 1 ErrMin= 1.33D-04
 ErrMax= 1.33D-04  0.00D+00 EMaxC= 1.00D-01 BMatC= 4.29D-06 BMatP= 4.29D-06
 IDIUse=3 WtCom= 9.99D-01 WtEn= 1.33D-03
 Coeff-Com:  0.100D+01
 Coeff-En:   0.100D+01
 Coeff:      0.100D+01
 Gap=     0.209 Goal=   None    Shift=    0.000
 RMSDP=6.06D-06 MaxDP=5.43D-04 DE=-2.99D-04 OVMax= 7.80D-04

 Cycle   9  Pass 1  IDiag  1:
 RMSU=  2.25D-05    CP:  1.00D+00
 E= -1777.86448779788     Delta-E=       -0.000000492643 Rises=F Damp=F
 DIIS: error= 1.07D-04 at cycle   2 NSaved=   2.
 NSaved= 2 IEnMin= 2 EnMin= -1777.86448779788     IErMin= 2 ErrMin= 1.07D-04
 ErrMax= 1.07D-04  0.00D+00 EMaxC= 1.00D-01 BMatC= 4.58D-06 BMatP= 4.29D-06
 IDIUse=3 WtCom= 9.99D-01 WtEn= 1.07D-03
 Coeff-Com:  0.511D+00 0.489D+00
 Coeff-En:   0.453D+00 0.547D+00
 Coeff:      0.511D+00 0.489D+00
 Gap=     0.209 Goal=   None    Shift=    0.000
 RMSDP=3.93D-06 MaxDP=4.79D-04 DE=-4.93D-07 OVMax= 8.90D-04

 Cycle  10  Pass 1  IDiag  1:
 RMSU=  3.89D-06    CP:  1.00D+00  9.74D-01
 E= -1777.86449017703     Delta-E=       -0.000002379155 Rises=F Damp=F
 DIIS: error= 6.81D-05 at cycle   3 NSaved=   3.
 NSaved= 3 IEnMin= 3 EnMin= -1777.86449017703     IErMin= 3 ErrMin= 6.81D-05
 ErrMax= 6.81D-05  0.00D+00 EMaxC= 1.00D-01 BMatC= 1.56D-06 BMatP= 4.29D-06
 IDIUse=1 WtCom= 1.00D+00 WtEn= 0.00D+00
 Coeff-Com:  0.224D-01 0.365D+00 0.613D+00
 Coeff:      0.224D-01 0.365D+00 0.613D+00
 Gap=     0.209 Goal=   None    Shift=    0.000
 RMSDP=1.59D-06 MaxDP=2.01D-04 DE=-2.38D-06 OVMax= 3.91D-04

 Cycle  11  Pass 1  IDiag  1:
 RMSU=  6.39D-07    CP:  1.00D+00  9.94D-01  6.42D-01
 E= -1777.86449131088     Delta-E=       -0.000001133847 Rises=F Damp=F
 DIIS: error= 9.05D-06 at cycle   4 NSaved=   4.
 NSaved= 4 IEnMin= 4 EnMin= -1777.86449131088     IErMin= 4 ErrMin= 9.05D-06
 ErrMax= 9.05D-06  0.00D+00 EMaxC= 1.00D-01 BMatC= 7.54D-08 BMatP= 1.56D-06
 IDIUse=1 WtCom= 1.00D+00 WtEn= 0.00D+00
 Coeff-Com: -0.367D-02 0.204D+00 0.370D+00 0.431D+00
 Coeff:     -0.367D-02 0.204D+00 0.370D+00 0.431D+00
 Gap=     0.209 Goal=   None    Shift=    0.000
 RMSDP=3.70D-07 MaxDP=3.81D-05 DE=-1.13D-06 OVMax= 5.43D-05

 Cycle  12  Pass 1  IDiag  1:
 RMSU=  1.44D-07    CP:  1.00D+00  9.95D-01  6.50D-01  4.70D-01
 E= -1777.86449137335     Delta-E=       -0.000000062469 Rises=F Damp=F
 DIIS: error= 1.58D-06 at cycle   5 NSaved=   5.
 NSaved= 5 IEnMin= 5 EnMin= -1777.86449137335     IErMin= 5 ErrMin= 1.58D-06
 ErrMax= 1.58D-06  0.00D+00 EMaxC= 1.00D-01 BMatC= 3.09D-09 BMatP= 7.54D-08
 IDIUse=1 WtCom= 1.00D+00 WtEn= 0.00D+00
 Coeff-Com: -0.309D-02 0.111D+00 0.203D+00 0.263D+00 0.425D+00
 Coeff:     -0.309D-02 0.111D+00 0.203D+00 0.263D+00 0.425D+00
 Gap=     0.209 Goal=   None    Shift=    0.000
 RMSDP=7.69D-08 MaxDP=6.52D-06 DE=-6.25D-08 OVMax= 8.66D-06

 Cycle  13  Pass 1  IDiag  1:
 RMSU=  5.31D-08    CP:  1.00D+00  9.95D-01  6.50D-01  4.90D-01  6.24D-01
 E= -1777.86449137557     Delta-E=       -0.000000002222 Rises=F Damp=F
 DIIS: error= 3.43D-07 at cycle   6 NSaved=   6.
 NSaved= 6 IEnMin= 6 EnMin= -1777.86449137557     IErMin= 6 ErrMin= 3.43D-07
 ErrMax= 3.43D-07  0.00D+00 EMaxC= 1.00D-01 BMatC= 1.33D-10 BMatP= 3.09D-09
 IDIUse=1 WtCom= 1.00D+00 WtEn= 0.00D+00
 Coeff-Com: -0.117D-02 0.348D-01 0.638D-01 0.879D-01 0.215D+00 0.600D+00
 Coeff:     -0.117D-02 0.348D-01 0.638D-01 0.879D-01 0.215D+00 0.600D+00
 Gap=     0.209 Goal=   None    Shift=    0.000
 RMSDP=2.03D-08 MaxDP=1.44D-06 DE=-2.22D-09 OVMax= 2.30D-06

 Cycle  14  Pass 1  IDiag  1:
 RMSU=  1.60D-08    CP:  1.00D+00  9.95D-01  6.50D-01  4.89D-01  6.70D-01
                    CP:  8.09D-01
 E= -1777.86449137578     Delta-E=       -0.000000000206 Rises=F Damp=F
 DIIS: error= 1.64D-07 at cycle   7 NSaved=   7.
 NSaved= 7 IEnMin= 7 EnMin= -1777.86449137578     IErMin= 7 ErrMin= 1.64D-07
 ErrMax= 1.64D-07  0.00D+00 EMaxC= 1.00D-01 BMatC= 2.19D-11 BMatP= 1.33D-10
 IDIUse=1 WtCom= 1.00D+00 WtEn= 0.00D+00
 Coeff-Com: -0.327D-03 0.785D-02 0.143D-01 0.215D-01 0.736D-01 0.340D+00
 Coeff-Com:  0.543D+00
 Coeff:     -0.327D-03 0.785D-02 0.143D-01 0.215D-01 0.736D-01 0.340D+00
 Coeff:      0.543D+00
 Gap=     0.209 Goal=   None    Shift=    0.000
 RMSDP=7.60D-09 MaxDP=6.15D-07 DE=-2.06D-10 OVMax= 1.09D-06

 SCF Done:  E(RB3LYP) =  -1777.86449138     A.U. after   14 cycles
            NFock= 14  Conv=0.76D-08     -V/T= 2.0092
 KE= 1.761599232921D+03 PE=-1.228424600582D+04 EE= 4.690016507239D+03
 Leave Link  502 at Thu Aug 27 09:48:59 2020, MaxMem=  2147483648 cpu:      1222.4
 (Enter /global/apps/Gaussian/09.d01/l801.exe)
 DoSCS=F DFT=T ScalE2(SS,OS)=  1.000000  1.000000
 Range of M.O.s used for correlation:     1   745
 NBasis=   745 NAE=   139 NBE=   139 NFC=     0 NFV=     0
 NROrb=    745 NOA=   139 NOB=   139 NVA=   606 NVB=   606
 Leave Link  801 at Thu Aug 27 09:48:59 2020, MaxMem=  2147483648 cpu:         0.9
 (Enter /global/apps/Gaussian/09.d01/l1101.exe)
 Using compressed storage, NAtomX=    79.
 Will process     80 centers per pass.
 R6Disp: Adding Grimme-D3 dispersion energy 1st derivatives to the gradient.
 Leave Link 1101 at Thu Aug 27 09:49:12 2020, MaxMem=  2147483648 cpu:       223.5
 (Enter /global/apps/Gaussian/09.d01/l1102.exe)
 Symmetrizing basis deriv contribution to polar:
 IMax=3 JMax=2 DiffMx= 0.00D+00
 Leave Link 1102 at Thu Aug 27 09:49:13 2020, MaxMem=  2147483648 cpu:         4.4
 (Enter /global/apps/Gaussian/09.d01/l1110.exe)
 Forming Gx(P) for the SCF density, NAtomX=    79.
 Integral derivatives from FoFJK, PRISM(SPDF).
 Do as many integral derivatives as possible in FoFJK.
 G2DrvN: MDV=    2147482912.
 G2DrvN: will do    80 centers at a time, making    1 passes.
 Calling FoFCou, ICntrl=  3107 FMM=T I1Cent=   0 AccDes= 0.00D+00.
 FoFJK:  IHMeth= 1 ICntrl=    3107 DoSepK=F KAlg= 0 I1Cent=   0 FoldK=F
 IRaf=         0 NMat=   1 IRICut=       1 DoRegI=T DoRafI=F ISym2E= 0.
 FoFCou: FMM=T IPFlag=           0 FMFlag=      100000 FMFlg1=        2001
         NFxFlg=           0 DoJE=F BraDBF=F KetDBF=F FulRan=T
         wScrn=  0.000000 ICntrl=    3107 IOpCl=  0 I1Cent=           0 NGrid=           0
         NMat0=    1 NMatS0=      1 NMatT0=    0 NMatD0=    1 NMtDS0=    0 NMtDT0=    0
 Symmetry not used in FoFCou.
 FMM levels:  10  Number of levels for PrismC:   9
 End of G2Drv F.D. properties file   721 does not exist.
 End of G2Drv F.D. properties file   722 does not exist.
 End of G2Drv F.D. properties file   788 does not exist.
 Leave Link 1110 at Thu Aug 27 09:53:04 2020, MaxMem=  2147483648 cpu:      4601.9
 (Enter /global/apps/Gaussian/09.d01/l1002.exe)
 Minotr:  Closed shell wavefunction.
          IDoAtm=11111111111111111111111111111111111111111111111111
          IDoAtm=11111111111111111111111111111
          Direct CPHF calculation.
          Differentiating once with respect to electric field.
                with respect to dipole field.
          Differentiating once with respect to nuclear coordinates.
          Requested convergence is 1.0D-08 RMS, and 1.0D-07 maximum.
          Secondary convergence is 1.0D-12 RMS, and 1.0D-12 maximum.
          NewPWx=T KeepS1=F KeepF1=F KeepIn=T MapXYZ=F SortEE=F KeepMc=T.
          MDV=    2147482109 using IRadAn=       2.
 Generate precomputed XC quadrature information.
          Solving linear equations simultaneously, MaxMat=      72.
 FoF2E skips out because all densities are zero.
 CalDSu exits because no D1Ps are significant.
 FoFJK:  IHMeth= 1 ICntrl=       0 DoSepK=F KAlg= 0 I1Cent=   0 FoldK=F
 IRaf= 660000000 NMat=  72 IRICut=       1 DoRegI=T DoRafI=F ISym2E= 2.
 FoFCou: FMM=T IPFlag=           0 FMFlag=      100000 FMFlg1=        2001
         NFxFlg=           0 DoJE=F BraDBF=F KetDBF=F FulRan=T
         wScrn=  0.000000 ICntrl=       0 IOpCl=  0 I1Cent=           0 NGrid=           0
         NMat0=   72 NMatS0=     72 NMatT0=    0 NMatD0=   72 NMtDS0=    0 NMtDT0=    0
 Symmetry not used in FoFCou.
 FMM levels:  10  Number of levels for PrismC:   9
          There are   240 degrees of freedom in the 1st order CPHF.  IDoFFX=6 NUNeed=     3.
    240 vectors produced by pass  0 Test12= 8.42D-14 1.00D-09 XBig12= 2.27D+02 4.66D+00.
 AX will form    72 AO Fock derivatives at one time.
    237 vectors produced by pass  1 Test12= 8.42D-14 1.00D-09 XBig12= 4.78D+01 1.13D+00.
    237 vectors produced by pass  2 Test12= 8.42D-14 1.00D-09 XBig12= 2.90D-01 4.43D-02.
    237 vectors produced by pass  3 Test12= 8.42D-14 1.00D-09 XBig12= 8.85D-04 2.21D-03.
    237 vectors produced by pass  4 Test12= 8.42D-14 1.00D-09 XBig12= 1.31D-06 5.71D-05.
    147 vectors produced by pass  5 Test12= 8.42D-14 1.00D-09 XBig12= 1.12D-09 1.58D-06.
      7 vectors produced by pass  6 Test12= 8.42D-14 1.00D-09 XBig12= 8.44D-13 5.34D-08.
      3 vectors produced by pass  7 Test12= 8.42D-14 1.00D-09 XBig12= 8.12D-16 1.91D-09.
 InvSVY:  IOpt=1 It=  1 EMax= 2.49D-14
 Solved reduced A of dimension  1345 with   240 vectors.
 FullF1:  Do perturbations    1 to     3.
 Isotropic polarizability for W=    0.000000      303.27 Bohr**3.
 End of Minotr F.D. properties file   721 does not exist.
 End of Minotr F.D. properties file   722 does not exist.
 End of Minotr F.D. properties file   788 does not exist.
 Leave Link 1002 at Thu Aug 27 10:11:55 2020, MaxMem=  2147483648 cpu:     22471.7
 (Enter /global/apps/Gaussian/09.d01/l601.exe)
 Copying SCF densities to generalized density rwf, IOpCl= 0 IROHF=0.

 **********************************************************************

            Population analysis using the SCF density.

 **********************************************************************

 Orbital symmetries:
       Occupied  (A) (A) (A) (A) (A) (A) (A) (A) (A) (A) (A) (A)
                 (A) (A) (A) (A) (A) (A) (A) (A) (A) (A) (A) (A)
                 (A) (A) (A) (A) (A) (A) (A) (A) (A) (A) (A) (A)
                 (A) (A) (A) (A) (A) (A) (A) (A) (A) (A) (A) (A)
                 (A) (A) (A) (A) (A) (A) (A) (A) (A) (A) (A) (A)
                 (A) (A) (A) (A) (A) (A) (A) (A) (A) (A) (A) (A)
                 (A) (A) (A) (A) (A) (A) (A) (A) (A) (A) (A) (A)
                 (A) (A) (A) (A) (A) (A) (A) (A) (A) (A) (A) (A)
                 (A) (A) (A) (A) (A) (A) (A) (A) (A) (A) (A) (A)
                 (A) (A) (A) (A) (A) (A) (A) (A) (A) (A) (A) (A)
                 (A) (A) (A) (A) (A) (A) (A) (A) (A) (A) (A) (A)
                 (A) (A) (A) (A) (A) (A) (A)
       Virtual   (A) (A) (A) (A) (A) (A) (A) (A) (A) (A) (A) (A)
                 (A) (A) (A) (A) (A) (A) (A) (A) (A) (A) (A) (A)
                 (A) (A) (A) (A) (A) (A) (A) (A) (A) (A) (A) (A)
                 (A) (A) (A) (A) (A) (A) (A) (A) (A) (A) (A) (A)
                 (A) (A) (A) (A) (A) (A) (A) (A) (A) (A) (A) (A)
                 (A) (A) (A) (A) (A) (A) (A) (A) (A) (A) (A) (A)
                 (A) (A) (A) (A) (A) (A) (A) (A) (A) (A) (A) (A)
                 (A) (A) (A) (A) (A) (A) (A) (A) (A) (A) (A) (A)
                 (A) (A) (A) (A) (A) (A) (A) (A) (A) (A) (A) (A)
                 (A) (A) (A) (A) (A) (A) (A) (A) (A) (A) (A) (A)
                 (A) (A) (A) (A) (A) (A) (A) (A) (A) (A) (A) (A)
                 (A) (A) (A) (A) (A) (A) (A) (A) (A) (A) (A) (A)
                 (A) (A) (A) (A) (A) (A) (A) (A) (A) (A) (A) (A)
                 (A) (A) (A) (A) (A) (A) (A) (A) (A) (A) (A) (A)
                 (A) (A) (A) (A) (A) (A) (A) (A) (A) (A) (A) (A)
                 (A) (A) (A) (A) (A) (A) (A) (A) (A) (A) (A) (A)
                 (A) (A) (A) (A) (A) (A) (A) (A) (A) (A) (A) (A)
                 (A) (A) (A) (A) (A) (A) (A) (A) (A) (A) (A) (A)
                 (A) (A) (A) (A) (A) (A) (A) (A) (A) (A) (A) (A)
                 (A) (A) (A) (A) (A) (A) (A) (A) (A) (A) (A) (A)
                 (A) (A) (A) (A) (A) (A) (A) (A) (A) (A) (A) (A)
                 (A) (A) (A) (A) (A) (A) (A) (A) (A) (A) (A) (A)
                 (A) (A) (A) (A) (A) (A) (A) (A) (A) (A) (A) (A)
                 (A) (A) (A) (A) (A) (A) (A) (A) (A) (A) (A) (A)
                 (A) (A) (A) (A) (A) (A) (A) (A) (A) (A) (A) (A)
                 (A) (A) (A) (A) (A) (A) (A) (A) (A) (A) (A) (A)
                 (A) (A) (A) (A) (A) (A) (A) (A) (A) (A) (A) (A)
                 (A) (A) (A) (A) (A) (A) (A) (A) (A) (A) (A) (A)
                 (A) (A) (A) (A) (A) (A) (A) (A) (A) (A) (A) (A)
                 (A) (A) (A) (A) (A) (A) (A) (A) (A) (A) (A) (A)
                 (A) (A) (A) (A) (A) (A) (A) (A) (A) (A) (A) (A)
                 (A) (A) (A) (A) (A) (A) (A) (A) (A) (A) (A) (A)
                 (A) (A) (A) (A) (A) (A) (A) (A) (A) (A) (A) (A)
                 (A) (A) (A) (A) (A) (A) (A) (A) (A) (A) (A) (A)
                 (A) (A) (A) (A) (A) (A) (A) (A) (A) (A) (A) (A)
                 (A) (A) (A) (A) (A) (A) (A) (A) (A) (A) (A) (A)
                 (A) (A) (A) (A) (A) (A) (A) (A) (A) (A) (A) (A)
                 (A) (A) (A) (A) (A) (A) (A) (A) (A) (A) (A) (A)
                 (A) (A) (A) (A) (A) (A) (A) (A) (A) (A) (A) (A)
                 (A) (A) (A) (A) (A) (A) (A) (A) (A) (A) (A) (A)
                 (A) (A) (A) (A) (A) (A) (A) (A) (A) (A) (A) (A)
                 (A) (A) (A) (A) (A) (A) (A) (A) (A) (A) (A) (A)
                 (A) (A) (A) (A) (A) (A) (A) (A) (A) (A) (A) (A)
                 (A) (A) (A) (A) (A) (A) (A) (A) (A) (A) (A) (A)
                 (A) (A) (A) (A) (A) (A) (A) (A) (A) (A) (A) (A)
                 (A) (A) (A) (A) (A) (A) (A) (A) (A) (A) (A) (A)
                 (A) (A) (A) (A) (A) (A) (A) (A) (A) (A) (A) (A)
                 (A) (A) (A) (A) (A) (A) (A) (A) (A) (A) (A) (A)
                 (A) (A) (A) (A) (A) (A) (A) (A) (A) (A) (A) (A)
                 (A) (A) (A) (A) (A) (A) (A) (A) (A) (A) (A) (A)
                 (A) (A) (A) (A) (A) (A)
 The electronic state is 1-A.
 Alpha  occ. eigenvalues --  -19.05792 -19.05595 -19.03820 -19.03412 -19.03314
 Alpha  occ. eigenvalues --  -19.01664 -19.00412 -18.99993 -18.98977 -14.32454
 Alpha  occ. eigenvalues --  -14.31183 -14.25874 -14.24817 -14.24198 -10.22047
 Alpha  occ. eigenvalues --  -10.21111 -10.20507 -10.19157 -10.18165 -10.17723
 Alpha  occ. eigenvalues --  -10.16624 -10.15995 -10.14591 -10.14029 -10.12586
 Alpha  occ. eigenvalues --  -10.12574 -10.12423 -10.11800 -10.11221 -10.11117
 Alpha  occ. eigenvalues --  -10.10452 -10.10368 -10.09299 -10.09250 -10.07889
 Alpha  occ. eigenvalues --   -0.97770  -0.96933  -0.96609  -0.93330  -0.92322
 Alpha  occ. eigenvalues --   -0.91716  -0.90500  -0.89703  -0.87658  -0.85946
 Alpha  occ. eigenvalues --   -0.83490  -0.81910  -0.80884  -0.80455  -0.73070
 Alpha  occ. eigenvalues --   -0.69249  -0.68355  -0.67501  -0.65604  -0.64847
 Alpha  occ. eigenvalues --   -0.64634  -0.60328  -0.59207  -0.58662  -0.58451
 Alpha  occ. eigenvalues --   -0.57987  -0.57634  -0.56290  -0.54339  -0.53751
 Alpha  occ. eigenvalues --   -0.49037  -0.48384  -0.47486  -0.47365  -0.46185
 Alpha  occ. eigenvalues --   -0.45344  -0.43057  -0.42171  -0.41251  -0.41101
 Alpha  occ. eigenvalues --   -0.40571  -0.39821  -0.39678  -0.39428  -0.38558
 Alpha  occ. eigenvalues --   -0.38403  -0.37979  -0.37798  -0.37279  -0.36744
 Alpha  occ. eigenvalues --   -0.36687  -0.36332  -0.36276  -0.35958  -0.35799
 Alpha  occ. eigenvalues --   -0.35558  -0.35505  -0.34608  -0.34315  -0.34132
 Alpha  occ. eigenvalues --   -0.32995  -0.32680  -0.32353  -0.31945  -0.31775
 Alpha  occ. eigenvalues --   -0.31368  -0.31005  -0.30904  -0.30850  -0.30444
 Alpha  occ. eigenvalues --   -0.29987  -0.29378  -0.29304  -0.29103  -0.29064
 Alpha  occ. eigenvalues --   -0.28963  -0.28772  -0.28704  -0.28270  -0.27908
 Alpha  occ. eigenvalues --   -0.27719  -0.27338  -0.26446  -0.25850  -0.25077
 Alpha  occ. eigenvalues --   -0.24613  -0.24453  -0.24134  -0.23640  -0.20100
 Alpha  occ. eigenvalues --   -0.19936  -0.19052  -0.18274  -0.17810  -0.17542
 Alpha  occ. eigenvalues --   -0.17122  -0.16129  -0.16113  -0.15180  -0.15112
 Alpha  occ. eigenvalues --   -0.14613  -0.14288  -0.13982  -0.13917
 Alpha virt. eigenvalues --    0.06994   0.10147   0.11087   0.12171   0.12794
 Alpha virt. eigenvalues --    0.13362   0.15391   0.15603   0.17206   0.17664
 Alpha virt. eigenvalues --    0.18018   0.18106   0.18707   0.19132   0.19794
 Alpha virt. eigenvalues --    0.20287   0.21032   0.21708   0.21897   0.22021
 Alpha virt. eigenvalues --    0.22276   0.22627   0.23031   0.23153   0.23483
 Alpha virt. eigenvalues --    0.23620   0.23808   0.24110   0.24332   0.24605
 Alpha virt. eigenvalues --    0.24761   0.25008   0.25375   0.25659   0.25965
 Alpha virt. eigenvalues --    0.26208   0.26448   0.26558   0.26801   0.26868
 Alpha virt. eigenvalues --    0.27286   0.27288   0.27436   0.27492   0.28273
 Alpha virt. eigenvalues --    0.28590   0.29059   0.29373   0.29516   0.29641
 Alpha virt. eigenvalues --    0.30274   0.30578   0.31070   0.31653   0.32422
 Alpha virt. eigenvalues --    0.32796   0.33075   0.33200   0.33652   0.34180
 Alpha virt. eigenvalues --    0.34666   0.34773   0.35602   0.35697   0.36123
 Alpha virt. eigenvalues --    0.37544   0.37908   0.38430   0.41232   0.42154
 Alpha virt. eigenvalues --    0.42661   0.43878   0.44468   0.44971   0.46762
 Alpha virt. eigenvalues --    0.47630   0.49013   0.51178   0.52736   0.53917
 Alpha virt. eigenvalues --    0.54379   0.55164   0.57229   0.57668   0.58535
 Alpha virt. eigenvalues --    0.58822   0.59396   0.59580   0.60407   0.60629
 Alpha virt. eigenvalues --    0.60862   0.61278   0.61484   0.61661   0.62176
 Alpha virt. eigenvalues --    0.62580   0.62701   0.63475   0.64032   0.64121
 Alpha virt. eigenvalues --    0.64552   0.64679   0.65132   0.65574   0.66451
 Alpha virt. eigenvalues --    0.66902   0.67079   0.67252   0.67426   0.68032
 Alpha virt. eigenvalues --    0.68200   0.68560   0.68687   0.69784   0.70102
 Alpha virt. eigenvalues --    0.70957   0.71060   0.71111   0.71717   0.72808
 Alpha virt. eigenvalues --    0.73417   0.73731   0.74078   0.74297   0.74485
 Alpha virt. eigenvalues --    0.75123   0.76282   0.76518   0.77612   0.78360
 Alpha virt. eigenvalues --    0.78833   0.79334   0.80302   0.80855   0.81427
 Alpha virt. eigenvalues --    0.81719   0.82333   0.82781   0.83373   0.84048
 Alpha virt. eigenvalues --    0.84298   0.84690   0.85250   0.85891   0.86425
 Alpha virt. eigenvalues --    0.86816   0.87200   0.87302   0.87848   0.88138
 Alpha virt. eigenvalues --    0.88389   0.88538   0.89433   0.90171   0.90231
 Alpha virt. eigenvalues --    0.91298   0.91880   0.92199   0.92390   0.92457
 Alpha virt. eigenvalues --    0.93064   0.93403   0.93505   0.94097   0.94413
 Alpha virt. eigenvalues --    0.94668   0.94956   0.95322   0.95708   0.95932
 Alpha virt. eigenvalues --    0.96464   0.96550   0.96815   0.96940   0.97741
 Alpha virt. eigenvalues --    0.98183   0.98480   0.98595   0.99344   0.99741
 Alpha virt. eigenvalues --    0.99814   1.00086   1.00425   1.00706   1.01018
 Alpha virt. eigenvalues --    1.01242   1.01415   1.01664   1.02179   1.02589
 Alpha virt. eigenvalues --    1.03386   1.03723   1.04413   1.05004   1.05283
 Alpha virt. eigenvalues --    1.06138   1.06891   1.07380   1.08514   1.08782
 Alpha virt. eigenvalues --    1.09415   1.10407   1.11732   1.12397   1.12609
 Alpha virt. eigenvalues --    1.13943   1.13964   1.14777   1.15296   1.15780
 Alpha virt. eigenvalues --    1.16573   1.17768   1.18167   1.18943   1.19052
 Alpha virt. eigenvalues --    1.20607   1.21041   1.21563   1.21921   1.22492
 Alpha virt. eigenvalues --    1.23529   1.24387   1.25157   1.26726   1.28125
 Alpha virt. eigenvalues --    1.28515   1.29476   1.29958   1.30652   1.30903
 Alpha virt. eigenvalues --    1.32084   1.33136   1.34629   1.34821   1.35460
 Alpha virt. eigenvalues --    1.35877   1.36680   1.36970   1.37417   1.38760
 Alpha virt. eigenvalues --    1.38927   1.39359   1.39665   1.39998   1.40524
 Alpha virt. eigenvalues --    1.40782   1.41853   1.42175   1.43345   1.43873
 Alpha virt. eigenvalues --    1.45331   1.45649   1.46241   1.46575   1.47423
 Alpha virt. eigenvalues --    1.47829   1.48570   1.49839   1.50275   1.51006
 Alpha virt. eigenvalues --    1.51918   1.52311   1.53017   1.54262   1.54280
 Alpha virt. eigenvalues --    1.55674   1.58481   1.59337   1.60839   1.61830
 Alpha virt. eigenvalues --    1.62519   1.63342   1.63985   1.64437   1.65218
 Alpha virt. eigenvalues --    1.66531   1.66666   1.67385   1.68615   1.69746
 Alpha virt. eigenvalues --    1.70178   1.71773   1.72396   1.73263   1.73386
 Alpha virt. eigenvalues --    1.74187   1.74915   1.75041   1.76833   1.77271
 Alpha virt. eigenvalues --    1.78512   1.78781   1.79854   1.80697   1.80884
 Alpha virt. eigenvalues --    1.81895   1.82256   1.82343   1.82559   1.83404
 Alpha virt. eigenvalues --    1.85493   1.86641   1.87258   1.87511   1.87916
 Alpha virt. eigenvalues --    1.88817   1.89076   1.89640   1.90076   1.90390
 Alpha virt. eigenvalues --    1.91119   1.91654   1.92030   1.92199   1.92667
 Alpha virt. eigenvalues --    1.93127   1.93583   1.94469   1.95643   1.95895
 Alpha virt. eigenvalues --    1.96748   1.96961   1.97442   1.97507   1.97970
 Alpha virt. eigenvalues --    1.98233   1.98381   1.98687   1.98989   1.99635
 Alpha virt. eigenvalues --    2.00023   2.00611   2.01583   2.01982   2.02638
 Alpha virt. eigenvalues --    2.03698   2.04081   2.04176   2.04674   2.05976
 Alpha virt. eigenvalues --    2.06698   2.08264   2.08718   2.09687   2.10748
 Alpha virt. eigenvalues --    2.11385   2.11624   2.11759   2.11832   2.12056
 Alpha virt. eigenvalues --    2.12139   2.12242   2.12334   2.12839   2.13025
 Alpha virt. eigenvalues --    2.13603   2.13819   2.14079   2.14180   2.14668
 Alpha virt. eigenvalues --    2.14901   2.14929   2.15544   2.15738   2.16571
 Alpha virt. eigenvalues --    2.16906   2.17461   2.17733   2.17878   2.18170
 Alpha virt. eigenvalues --    2.18352   2.18766   2.19069   2.19339   2.20021
 Alpha virt. eigenvalues --    2.20903   2.21074   2.21605   2.21978   2.22547
 Alpha virt. eigenvalues --    2.22745   2.23092   2.23946   2.24931   2.25369
 Alpha virt. eigenvalues --    2.25825   2.26689   2.26804   2.27367   2.27972
 Alpha virt. eigenvalues --    2.28340   2.28931   2.29572   2.30390   2.30833
 Alpha virt. eigenvalues --    2.31671   2.31866   2.34206   2.34460   2.35009
 Alpha virt. eigenvalues --    2.35982   2.36505   2.36989   2.37569   2.37995
 Alpha virt. eigenvalues --    2.39233   2.40221   2.40366   2.41247   2.41851
 Alpha virt. eigenvalues --    2.42603   2.42945   2.43675   2.44941   2.45209
 Alpha virt. eigenvalues --    2.45477   2.47738   2.48830   2.48888   2.49776
 Alpha virt. eigenvalues --    2.50201   2.50619   2.51249   2.51488   2.52186
 Alpha virt. eigenvalues --    2.52832   2.53240   2.53816   2.54644   2.55095
 Alpha virt. eigenvalues --    2.55728   2.56856   2.57760   2.58393   2.59447
 Alpha virt. eigenvalues --    2.59563   2.60307   2.61325   2.61813   2.62807
 Alpha virt. eigenvalues --    2.63069   2.63417   2.65674   2.66140   2.67262
 Alpha virt. eigenvalues --    2.67493   2.67867   2.68211   2.68761   2.68998
 Alpha virt. eigenvalues --    2.70171   2.70437   2.71073   2.71952   2.72371
 Alpha virt. eigenvalues --    2.73468   2.74303   2.74635   2.74652   2.74992
 Alpha virt. eigenvalues --    2.75597   2.76137   2.77015   2.77523   2.77774
 Alpha virt. eigenvalues --    2.77913   2.78101   2.78449   2.79077   2.79192
 Alpha virt. eigenvalues --    2.80465   2.80499   2.80767   2.80868   2.81441
 Alpha virt. eigenvalues --    2.82191   2.83558   2.84196   2.85635   2.87835
 Alpha virt. eigenvalues --    2.88749   2.90050   2.90159   2.90698   2.91630
 Alpha virt. eigenvalues --    2.91663   2.92509   2.93504   2.93601   2.93653
 Alpha virt. eigenvalues --    2.94153   2.94829   2.95250   2.95688   2.96116
 Alpha virt. eigenvalues --    2.96449   2.96986   2.97128   2.97607   2.97704
 Alpha virt. eigenvalues --    2.98049   2.98354   2.98741   2.98769   2.99733
 Alpha virt. eigenvalues --    3.01072   3.02174   3.03591   3.04410   3.06077
 Alpha virt. eigenvalues --    3.06644   3.07835   3.08703   3.09502   3.13358
 Alpha virt. eigenvalues --    3.13893   3.15772   3.17494   3.18011   3.18213
 Alpha virt. eigenvalues --    3.19777   3.21883   3.22258   3.23198   3.24262
 Alpha virt. eigenvalues --    3.25611   3.27734   3.28502   3.28662   3.29823
 Alpha virt. eigenvalues --    3.31073   3.31873   3.32094   3.32764   3.32924
 Alpha virt. eigenvalues --    3.34067   3.37574   3.38631   3.39365   3.41300
 Alpha virt. eigenvalues --    3.43604   3.46463   3.47240   3.48859   3.50216
 Alpha virt. eigenvalues --    3.50652   3.50956   3.51370   3.51713   3.52120
 Alpha virt. eigenvalues --    3.52402   3.52746   3.53056   3.53309   3.53548
 Alpha virt. eigenvalues --    3.54107   3.54524   3.55287   3.55740   3.56218
 Alpha virt. eigenvalues --    3.56956   3.57095   3.61409   3.61983   3.63343
 Alpha virt. eigenvalues --    3.66975   3.72267   3.72528   3.72903   3.76542
 Alpha virt. eigenvalues --    3.84730   3.95036   4.13650   4.14215   4.15874
 Alpha virt. eigenvalues --    4.16090   4.19611   4.20322   4.21907   4.24551
 Alpha virt. eigenvalues --    4.27193   4.28035   4.30503   4.31201   4.37014
 Alpha virt. eigenvalues --    4.37308   4.39396   4.40199   4.44723   4.46477
 Alpha virt. eigenvalues --    4.49516   4.55497   4.56255   4.57490   4.57744
 Alpha virt. eigenvalues --    4.58619   4.64379   4.65196   4.69990   4.71489
 Alpha virt. eigenvalues --    4.72422   4.74759   4.75918   4.77861   4.82602
 Alpha virt. eigenvalues --    4.85151
          Condensed to atoms (all electrons):
 Mulliken charges:
               1
     1  C    0.566064
     2  C   -0.250752
     3  N   -0.555362
     4  C    0.037905
     5  H    0.111242
     6  H    0.104657
     7  O   -0.561977
     8  C   -0.158442
     9  H    0.325533
    10  H    0.060934
    11  O   -0.610288
    12  H    0.122190
    13  H    0.114205
    14  H    0.107277
    15  H    0.102026
    16  C    0.739779
    17  C   -0.321739
    18  O   -0.527647
    19  O   -0.673075
    20  H    0.088382
    21  H    0.105400
    22  H    0.103191
    23  C   -0.068307
    24  H    0.083200
    25  H    0.070735
    26  H    0.116573
    27  N   -0.502827
    28  C    0.298336
    29  C    0.016438
    30  N   -0.543938
    31  H    0.155743
    32  C    0.273314
    33  H    0.129687
    34  C   -0.246563
    35  C   -0.334291
    36  H    0.095183
    37  H    0.147380
    38  H    0.100450
    39  H    0.094258
    40  H    0.134751
    41  C   -0.403542
    42  C    0.545504
    43  H    0.133809
    44  H    0.112827
    45  H    0.117725
    46  N   -0.543381
    47  O   -0.552611
    48  C   -0.165642
    49  H    0.325217
    50  H    0.112556
    51  H    0.099195
    52  H    0.116190
    53  C    0.589205
    54  C   -0.251265
    55  O   -0.609313
    56  O   -0.577376
    57  C   -0.307839
    58  H    0.110722
    59  H    0.108435
    60  H    0.076177
    61  H    0.107668
    62  H    0.120919
    63  N   -0.546514
    64  C   -0.176082
    65  C    0.531554
    66  H    0.297821
    67  H    0.110399
    68  H    0.103672
    69  H    0.139344
    70  C   -0.400415
    71  O   -0.527670
    72  H    0.129522
    73  H    0.135942
    74  H    0.107411
    75  O   -0.658564
    76  H    0.301267
    77  H    0.344504
    78  H    0.397629
    79  H    0.395374
 Sum of Mulliken charges =  -1.00000
 Mulliken charges with hydrogens summed into heavy atoms:
               1
     1  C    0.566064
     2  C   -0.034853
     3  N   -0.229829
     4  C    0.221028
     7  O   -0.561977
     8  C    0.165066
    11  O   -0.610288
    16  C    0.739779
    17  C   -0.024766
    18  O   -0.527647
    19  O   -0.673075
    23  C    0.202202
    27  N   -0.107453
    28  C    0.454079
    29  C    0.146125
    30  N   -0.146309
    32  C    0.273314
    34  C   -0.004000
    35  C   -0.004832
    41  C   -0.039179
    42  C    0.545504
    46  N   -0.218164
    47  O   -0.552611
    48  C    0.162299
    53  C    0.589205
    54  C   -0.032108
    55  O   -0.609313
    56  O   -0.577376
    57  C   -0.003075
    63  N   -0.248693
    64  C    0.177332
    65  C    0.531554
    70  C   -0.027541
    71  O   -0.527670
    75  O   -0.012792
 APT charges:
               1
     1  C    1.000176
     2  C   -0.004164
     3  N   -0.811467
     4  C    0.426742
     5  H   -0.025875
     6  H   -0.039081
     7  O   -0.829139
     8  C    0.390874
     9  H    0.421180
    10  H   -0.093522
    11  O   -1.180959
    12  H    0.023085
    13  H   -0.046586
    14  H   -0.061691
    15  H   -0.012875
    16  C    1.572260
    17  C   -0.015015
    18  O   -0.912906
    19  O   -1.172797
    20  H   -0.034774
    21  H   -0.014034
    22  H   -0.010375
    23  C    0.431216
    24  H   -0.039432
    25  H   -0.072101
    26  H   -0.001674
    27  N   -0.602698
    28  C    0.264284
    29  C   -0.005101
    30  N   -0.623932
    31  H    0.102398
    32  C    0.145851
    33  H    0.097917
    34  C    0.092721
    35  C    0.071523
    36  H   -0.036818
    37  H    0.041372
    38  H   -0.038912
    39  H   -0.034767
    40  H    0.026576
    41  C   -0.036870
    42  C    1.087293
    43  H    0.013400
    44  H   -0.021309
    45  H   -0.007426
    46  N   -0.866227
    47  O   -0.850619
    48  C    0.347783
    49  H    0.451880
    50  H   -0.035135
    51  H   -0.065678
    52  H    0.013051
    53  C    1.239570
    54  C   -0.001393
    55  O   -1.177831
    56  O   -1.023047
    57  C    0.072768
    58  H   -0.034681
    59  H   -0.032984
    60  H   -0.060600
    61  H   -0.017527
    62  H    0.003209
    63  N   -0.809394
    64  C    0.299911
    65  C    1.050481
    66  H    0.337865
    67  H   -0.011919
    68  H   -0.058367
    69  H    0.032487
    70  C   -0.088327
    71  O   -0.783473
    72  H    0.028978
    73  H    0.047719
    74  H   -0.012837
    75  O   -0.698055
    76  H    0.276008
    77  H    0.393330
    78  H    0.828292
    79  H    0.782194
 Sum of APT charges =  -1.00000
 APT charges with hydrogens summed into heavy atoms:
               1
     1  C    1.000176
     2  C   -0.069120
     3  N   -0.390287
     4  C    0.356305
     7  O   -0.829139
     8  C    0.269722
    11  O   -1.180959
    16  C    1.572260
    17  C   -0.074197
    18  O   -0.912906
    19  O   -1.172797
    23  C    0.318009
    27  N    0.179497
    28  C    0.366682
    29  C    0.092816
    30  N    0.204360
    32  C    0.145851
    34  C    0.097275
    35  C    0.024421
    41  C   -0.052205
    42  C    1.087293
    46  N   -0.414348
    47  O   -0.850619
    48  C    0.260022
    53  C    1.239570
    54  C   -0.069058
    55  O   -1.177831
    56  O   -1.023047
    57  C   -0.002150
    63  N   -0.471529
    64  C    0.262111
    65  C    1.050481
    70  C   -0.024466
    71  O   -0.783473
    75  O   -0.028717
 Electronic spatial extent (au):  <R**2>=          28382.6321
 Charge=             -1.0000 electrons
 Dipole moment (field-independent basis, Debye):
    X=              5.3855    Y=              4.2050    Z=              5.1563  Tot=              8.5600
 Quadrupole moment (field-independent basis, Debye-Ang):
   XX=           -377.6320   YY=           -286.2485   ZZ=           -229.9356
   XY=              2.8334   XZ=             -1.1510   YZ=              1.4480
 Traceless Quadrupole moment (field-independent basis, Debye-Ang):
   XX=            -79.6933   YY=             11.6902   ZZ=             68.0031
   XY=              2.8334   XZ=             -1.1510   YZ=              1.4480
 Octapole moment (field-independent basis, Debye-Ang**2):
  XXX=            386.0199  YYY=            -26.9739  ZZZ=             55.0444  XYY=            140.4236
  XXY=            318.8365  XXZ=              1.0557  XZZ=            -31.0720  YZZ=             14.3581
  YYZ=            112.5664  XYZ=            -97.7123
 Hexadecapole moment (field-independent basis, Debye-Ang**3):
 XXXX=         -34861.3329 YYYY=          -6903.4571 ZZZZ=          -3271.7461 XXXY=          -1679.0283
 XXXZ=            -44.9197 YYYX=            241.1558 YYYZ=            134.2389 ZZZX=             49.8215
 ZZZY=           -128.7457 XXYY=          -7793.4394 XXZZ=          -5395.8410 YYZZ=          -1824.5407
 XXYZ=            220.5246 YYXZ=           -154.7364 ZZXY=            323.3129
 N-N= 4.054765774289D+03 E-N=-1.228424601909D+04  KE= 1.761599232921D+03
  Exact polarizability: 363.663  14.445 290.771  16.094  -6.432 255.372
 Approx polarizability: 445.598  23.986 426.557  16.534 -14.976 372.468
 No NMR shielding tensors so no spin-rotation constants.
 Leave Link  601 at Thu Aug 27 10:11:59 2020, MaxMem=  2147483648 cpu:        40.9
 (Enter /global/apps/Gaussian/09.d01/l701.exe)
 Compute integral second derivatives.
 ... and contract with generalized density number  0.
 R6Disp: Adding Grimme-D3 dispersion energy 2nd derivatives to the Hessian.
 Leave Link  701 at Thu Aug 27 10:12:03 2020, MaxMem=  2147483648 cpu:        55.9
 (Enter /global/apps/Gaussian/09.d01/l702.exe)
 L702 exits ... SP integral derivatives will be done elsewhere.
 Leave Link  702 at Thu Aug 27 10:12:03 2020, MaxMem=  2147483648 cpu:         0.3
 (Enter /global/apps/Gaussian/09.d01/l703.exe)
 Compute integral second derivatives, UseDBF=F ICtDFT=           0.
 Integral derivatives from FoFJK, PRISM(SPDF).
 Calling FoFJK, ICntrl=    100127 FMM=F ISym2X=0 I1Cent= 0 IOpClX= 0 NMat=1 NMatS=1 NMatT=0.
 FoFJK:  IHMeth= 1 ICntrl=  100127 DoSepK=F KAlg= 0 I1Cent=   0 FoldK=F
 IRaf=         0 NMat=   1 IRICut=       1 DoRegI=T DoRafI=F ISym2E= 0.
 FoFCou: FMM=F IPFlag=           0 FMFlag=      100000 FMFlg1=        2800
         NFxFlg=           0 DoJE=F BraDBF=F KetDBF=F FulRan=T
         wScrn=  0.000000 ICntrl=  100127 IOpCl=  0 I1Cent=           0 NGrid=           0
         NMat0=    1 NMatS0=      1 NMatT0=    0 NMatD0=    1 NMtDS0=    0 NMtDT0=    0
 Symmetry not used in FoFCou.
 Leave Link  703 at Thu Aug 27 10:15:25 2020, MaxMem=  2147483648 cpu:      4030.9
 (Enter /global/apps/Gaussian/09.d01/l716.exe)
 Dipole        = 2.11881851D+00 1.65438604D+00 2.02866331D+00
 Polarizability= 3.63662861D+02 1.44452820D+01 2.90771008D+02
                 1.60935580D+01-6.43151987D+00 2.55372333D+02
 Full mass-weighted force constant matrix:
 Low frequencies ---   -2.3338   -0.0008   -0.0003    0.0014    2.3281    4.3919
 Low frequencies ---    8.2344   10.6618   13.3147
 Diagonal vibrational polarizability:
      771.7320383     598.7041000     401.5120451
 Harmonic frequencies (cm**-1), IR intensities (KM/Mole), Raman scattering
 activities (A**4/AMU), depolarization ratios for plane and unpolarized
 incident light, reduced masses (AMU), force constants (mDyne/A),
 and normal coordinates:
                      1                      2                      3
                      A                      A                      A
 Frequencies --      3.2824                10.2068                12.4025
 Red. masses --      6.1150                 5.7193                 4.5171
 Frc consts  --      0.0000                 0.0004                 0.0004
 IR Inten    --      0.2958                 0.2725                 0.3256
  Atom  AN      X      Y      Z        X      Y      Z        X      Y      Z
     1   6    -0.01  -0.07  -0.09    -0.02  -0.02  -0.06     0.02   0.03  -0.03
     2   6     0.00  -0.05  -0.10    -0.03   0.03  -0.05     0.03   0.02  -0.04
     3   7     0.00  -0.08  -0.07     0.01  -0.04  -0.07    -0.01   0.06   0.01
     4   6     0.01  -0.02  -0.07    -0.02   0.05  -0.03     0.01   0.02  -0.04
     5   1    -0.01  -0.07  -0.11    -0.02   0.03  -0.04     0.02   0.00  -0.05
     6   1     0.01  -0.03  -0.13    -0.05   0.04  -0.07     0.05   0.02  -0.05
     7   8    -0.02  -0.08  -0.10    -0.04  -0.03  -0.08     0.03   0.02  -0.05
     8   6     0.00  -0.10  -0.06     0.01  -0.08  -0.08    -0.02   0.08   0.02
     9   1     0.02  -0.07  -0.06     0.02  -0.03  -0.05    -0.03   0.07   0.02
    10   1     0.01   0.01  -0.08    -0.03   0.08  -0.02     0.04   0.01  -0.05
    11   8     0.02  -0.03  -0.04     0.02   0.05   0.00    -0.04   0.01  -0.04
    12   1     0.01  -0.01  -0.07    -0.02   0.04  -0.04     0.02   0.05  -0.02
    13   1    -0.02  -0.13  -0.07     0.02  -0.08  -0.08    -0.03   0.04   0.01
    14   1    -0.01  -0.10  -0.08    -0.01  -0.10  -0.09     0.01   0.11   0.00
    15   1     0.00  -0.10  -0.03     0.04  -0.10  -0.08    -0.05   0.10   0.05
    16   6     0.03  -0.03  -0.02     0.05   0.03   0.02    -0.06   0.03   0.02
    17   6     0.04  -0.07   0.00     0.11  -0.01   0.05    -0.10  -0.01   0.04
    18   8     0.02  -0.01   0.01     0.05   0.08   0.07    -0.05   0.04   0.03
    19   8     0.02  -0.03  -0.03     0.04   0.00  -0.02    -0.04   0.06   0.04
    20   1     0.05  -0.06   0.02     0.12   0.01   0.08    -0.10  -0.04   0.02
    21   1     0.05  -0.07   0.02     0.14  -0.03   0.07    -0.12   0.00   0.07
    22   1     0.04  -0.09  -0.02     0.10  -0.05   0.02    -0.10  -0.03   0.02
    23   6    -0.01   0.01   0.00     0.00   0.11   0.05    -0.01   0.09   0.03
    24   1     0.01   0.04   0.02     0.01   0.14   0.09    -0.03   0.09   0.04
    25   1    -0.03   0.03  -0.01    -0.04   0.13   0.04     0.03   0.08   0.00
    26   1    -0.01  -0.01  -0.02    -0.01   0.08   0.02    -0.01   0.13   0.04
    27   7     0.01  -0.03   0.00     0.01   0.07   0.05    -0.03  -0.04  -0.07
    28   6     0.02  -0.01   0.03     0.03   0.07   0.07    -0.02  -0.03  -0.04
    29   6     0.00  -0.06  -0.01     0.00   0.04   0.03    -0.05  -0.06  -0.07
    30   7     0.01  -0.02   0.04     0.02   0.04   0.07    -0.03  -0.04  -0.03
    31   1     0.03   0.02   0.05     0.04   0.09   0.08    -0.01  -0.01  -0.03
    32   6     0.00  -0.05   0.01     0.00   0.01   0.04    -0.05  -0.06  -0.05
    33   1    -0.01  -0.08  -0.04    -0.02   0.03   0.01    -0.06  -0.06  -0.09
    34   6    -0.01  -0.08   0.01    -0.01  -0.03   0.04    -0.06  -0.07  -0.04
    35   6    -0.01  -0.10   0.05     0.02  -0.06   0.05    -0.07  -0.08   0.00
    36   1    -0.01  -0.10  -0.01    -0.02  -0.03   0.03    -0.07  -0.09  -0.06
    37   1     0.00  -0.06   0.00    -0.03  -0.04   0.02    -0.04  -0.06  -0.04
    38   1    -0.02  -0.11   0.05     0.01  -0.09   0.05    -0.08  -0.09   0.00
    39   1    -0.02  -0.11   0.06     0.04  -0.05   0.06    -0.09  -0.10   0.00
    40   1     0.00  -0.08   0.07     0.04  -0.06   0.06    -0.06  -0.06   0.02
    41   6    -0.09   0.12   0.20     0.07  -0.08  -0.04     0.05  -0.08  -0.09
    42   6    -0.10   0.10   0.14     0.09  -0.06  -0.01     0.05  -0.05   0.02
    43   1    -0.09   0.11   0.25     0.05  -0.06  -0.03     0.06  -0.07  -0.18
    44   1    -0.10   0.09   0.19     0.05  -0.10  -0.07     0.06  -0.02  -0.08
    45   1    -0.07   0.18   0.19     0.10  -0.10  -0.05     0.02  -0.18  -0.08
    46   7    -0.06   0.05   0.01     0.09  -0.03   0.01     0.01   0.01   0.13
    47   8    -0.14   0.13   0.20     0.12  -0.08   0.00     0.07  -0.06   0.02
    48   6    -0.08   0.02  -0.06     0.11  -0.01   0.03     0.02   0.05   0.24
    49   1    -0.03   0.02  -0.03     0.07  -0.02   0.00    -0.01   0.02   0.12
    50   1    -0.08   0.06  -0.10     0.16  -0.01   0.03     0.00  -0.03   0.32
    51   1    -0.08  -0.03  -0.08     0.09  -0.01   0.02     0.03   0.14   0.29
    52   1    -0.07   0.00  -0.04     0.10   0.03   0.07     0.02   0.05   0.21
    53   6     0.02   0.02   0.07     0.01  -0.04   0.04    -0.01  -0.01   0.04
    54   6     0.02   0.02   0.09     0.03  -0.10   0.04    -0.01   0.01   0.09
    55   8     0.01   0.00   0.10     0.05  -0.01   0.08    -0.02  -0.02   0.02
    56   8     0.02   0.02   0.02    -0.04  -0.02   0.01     0.02  -0.01   0.02
    57   6     0.02   0.05   0.05    -0.02  -0.12  -0.01     0.02   0.03   0.09
    58   1     0.01  -0.02   0.11     0.05  -0.14   0.05    -0.04  -0.01   0.10
    59   1     0.01   0.05   0.14     0.06  -0.08   0.07    -0.01   0.02   0.10
    60   1     0.02   0.05   0.07     0.00  -0.16  -0.01     0.01   0.04   0.13
    61   1     0.03   0.10   0.04    -0.04  -0.07  -0.02     0.05   0.05   0.08
    62   1     0.02   0.03   0.01    -0.05  -0.13  -0.04     0.01   0.02   0.07
    63   7     0.04   0.05  -0.05    -0.11   0.06  -0.03     0.05   0.00  -0.05
    64   6     0.04   0.04  -0.07    -0.11   0.09  -0.02     0.05  -0.01  -0.09
    65   6     0.05   0.08  -0.07    -0.14   0.06  -0.05     0.08   0.02  -0.05
    66   1     0.03   0.04  -0.02    -0.08   0.03  -0.01     0.04   0.00  -0.03
    67   1     0.03   0.02  -0.06    -0.10   0.07  -0.01     0.03  -0.01  -0.09
    68   1     0.04   0.06  -0.06    -0.10   0.13   0.00     0.06  -0.01  -0.10
    69   1     0.04   0.05  -0.09    -0.14   0.11  -0.05     0.06  -0.01  -0.10
    70   6     0.05   0.09  -0.04    -0.13   0.02  -0.05     0.08   0.03  -0.01
    71   8     0.05   0.10  -0.10    -0.17   0.09  -0.07     0.09   0.03  -0.08
    72   1     0.05   0.09   0.00    -0.10   0.01  -0.03     0.07   0.03   0.01
    73   1     0.04   0.05  -0.05    -0.14  -0.02  -0.07     0.06   0.01  -0.01
    74   1     0.06   0.12  -0.06    -0.15   0.03  -0.07     0.10   0.05  -0.02
    75   8     0.01  -0.02  -0.04    -0.11  -0.06  -0.05     0.00  -0.03  -0.01
    76   1     0.01   0.00  -0.06    -0.12  -0.03  -0.05     0.02  -0.03  -0.04
    77   1     0.01   0.00  -0.01    -0.08  -0.06  -0.03     0.01  -0.02   0.01
    78   1     0.01  -0.01   0.07     0.03   0.02   0.08    -0.03  -0.04  -0.01
    79   1     0.02  -0.03  -0.01     0.02   0.08   0.03    -0.03  -0.02  -0.07
                      4                      5                      6
                      A                      A                      A
 Frequencies --     14.3128                23.2033                25.4267
 Red. masses --      5.2031                 3.7325                 4.6700
 Frc consts  --      0.0006                 0.0012                 0.0018
 IR Inten    --      0.5628                 0.7207                 0.0377
  Atom  AN      X      Y      Z        X      Y      Z        X      Y      Z
     1   6     0.12  -0.04  -0.05     0.05  -0.04   0.00    -0.08  -0.02   0.02
     2   6     0.08  -0.04   0.00     0.02  -0.03   0.04    -0.06   0.01   0.01
     3   7     0.08   0.00  -0.03     0.03  -0.03   0.01    -0.03  -0.06   0.01
     4   6     0.03  -0.02   0.03     0.00  -0.03   0.04    -0.03   0.03   0.02
     5   1     0.11  -0.06   0.03     0.04  -0.02   0.06    -0.07   0.01  -0.01
     6   1     0.08  -0.03  -0.02     0.00  -0.03   0.04    -0.07   0.02  -0.01
     7   8     0.18  -0.07  -0.10     0.08  -0.07  -0.04    -0.12  -0.02   0.04
     8   6     0.11   0.00  -0.08     0.06  -0.04  -0.03    -0.04  -0.10   0.02
     9   1     0.04   0.01   0.00     0.01  -0.02   0.03    -0.01  -0.05   0.02
    10   1     0.01  -0.03   0.04     0.00  -0.03   0.05    -0.03   0.05   0.01
    11   8     0.01  -0.04   0.06     0.00  -0.03   0.05    -0.02   0.03   0.04
    12   1     0.01   0.01   0.01    -0.01  -0.02   0.03    -0.03   0.02   0.03
    13   1     0.15  -0.05  -0.08     0.09  -0.06  -0.02    -0.04   0.04   0.03
    14   1     0.13   0.03  -0.14     0.05  -0.03  -0.06    -0.13  -0.20   0.11
    15   1     0.07   0.03  -0.06     0.05  -0.04  -0.03     0.06  -0.17  -0.09
    16   6    -0.02  -0.02   0.05    -0.02  -0.03   0.05     0.02   0.00   0.11
    17   6    -0.03  -0.03   0.06    -0.03  -0.02   0.04     0.06  -0.07   0.15
    18   8    -0.06  -0.03   0.06    -0.02  -0.04   0.04     0.03   0.08   0.17
    19   8    -0.02   0.01   0.04    -0.01  -0.02   0.06     0.00  -0.01   0.06
    20   1    -0.03  -0.06   0.07    -0.03  -0.03   0.04     0.08  -0.05   0.19
    21   1    -0.05  -0.02   0.06    -0.04  -0.02   0.04     0.10  -0.10   0.20
    22   1     0.00  -0.02   0.05    -0.03  -0.01   0.05     0.06  -0.14   0.11
    23   6    -0.04   0.00   0.06     0.00  -0.03   0.04    -0.03   0.14   0.15
    24   1    -0.07  -0.01   0.07     0.00  -0.03   0.04    -0.03   0.18   0.20
    25   1    -0.01  -0.02   0.05     0.02  -0.04   0.03    -0.06   0.16   0.12
    26   1    -0.04   0.04   0.06     0.01  -0.02   0.06    -0.03   0.12   0.10
    27   7     0.00  -0.06   0.09     0.01   0.00   0.00     0.00   0.03  -0.02
    28   6    -0.02  -0.04   0.09    -0.01   0.00  -0.03     0.01   0.02  -0.03
    29   6     0.02  -0.06   0.08     0.03   0.03   0.00    -0.01   0.01  -0.03
    30   7    -0.01  -0.03   0.08     0.00   0.03  -0.05     0.01  -0.01  -0.03
    31   1    -0.04  -0.03   0.10    -0.04  -0.02  -0.04     0.02   0.02  -0.02
    32   6     0.01  -0.05   0.07     0.03   0.04  -0.03     0.00  -0.01  -0.03
    33   1     0.03  -0.08   0.08     0.06   0.04   0.03    -0.02   0.02  -0.03
    34   6     0.03  -0.04   0.05     0.05   0.07  -0.04    -0.01  -0.03  -0.04
    35   6     0.04  -0.04   0.04     0.04   0.09  -0.06     0.01  -0.04  -0.03
    36   1     0.05  -0.05   0.05     0.07   0.07  -0.03    -0.01  -0.03  -0.04
    37   1     0.02  -0.04   0.03     0.05   0.08  -0.05    -0.01  -0.03  -0.04
    38   1     0.05  -0.04   0.02     0.06   0.11  -0.08     0.00  -0.05  -0.04
    39   1     0.04  -0.05   0.05     0.04   0.08  -0.05     0.01  -0.04  -0.03
    40   1     0.02  -0.04   0.03     0.01   0.10  -0.07     0.01  -0.03  -0.03
    41   6     0.01   0.02  -0.12    -0.01   0.02  -0.04    -0.03   0.05  -0.08
    42   6    -0.02   0.02  -0.06    -0.03   0.01  -0.03    -0.04   0.04  -0.10
    43   1     0.02   0.01  -0.12    -0.01   0.01  -0.01    -0.09   0.06   0.09
    44   1     0.00   0.05  -0.15    -0.03   0.03  -0.07    -0.12  -0.04  -0.20
    45   1     0.04  -0.01  -0.12     0.03   0.03  -0.05     0.13   0.12  -0.12
    46   7    -0.05   0.02   0.02    -0.05   0.00   0.02    -0.06   0.04  -0.04
    47   8    -0.02   0.02  -0.09    -0.04   0.02  -0.06    -0.03   0.03  -0.17
    48   6    -0.07   0.03   0.08    -0.07  -0.01   0.03    -0.06   0.02  -0.07
    49   1    -0.04   0.02   0.04    -0.04   0.00   0.04    -0.05   0.03  -0.01
    50   1    -0.08   0.00   0.10    -0.08  -0.01   0.03     0.04   0.07  -0.13
    51   1    -0.09   0.07   0.09    -0.08   0.01   0.03    -0.14  -0.05  -0.13
    52   1    -0.07   0.01   0.09    -0.07  -0.02   0.04    -0.08   0.04   0.05
    53   6    -0.04   0.05  -0.03     0.00   0.00  -0.02     0.03  -0.02  -0.02
    54   6    -0.05   0.09  -0.10     0.00  -0.01   0.03     0.02   0.00  -0.02
    55   8    -0.05   0.02   0.05     0.00   0.02  -0.09     0.02  -0.02  -0.03
    56   8    -0.02   0.05  -0.05    -0.01   0.00  -0.01     0.04  -0.02   0.01
    57   6    -0.06   0.14  -0.20     0.05  -0.11   0.28     0.03   0.02  -0.06
    58   1     0.00   0.04  -0.10    -0.09   0.16   0.01     0.03  -0.03  -0.02
    59   1    -0.11   0.11  -0.06     0.06  -0.11  -0.13     0.01   0.02   0.00
[...]
 5,-0.00001967,0.00025580,-0.00064977,0.00020671,-0.00161928,-0.0005340
 4,0.00024788,0.00016416,0.00034453,0.01501717,0.18022478,-0.10045708,-
 0.00916014,-0.02187650,0.00775691,-0.00628784,-0.15410287,0.09946456,-
 0.00069659,0.00037240,-0.00072472,0.00019244,0.00011114,0.00015666,0.0
 0040936,-0.00026014,0.00034403,-0.00047798,0.00116266,0.00010040,0.000
 01559,0.00010340,-0.00011984,0.00002938,-0.00013042,0.00000517,0.00043
 934,-0.00051818,0.00061007,-0.00032673,0.00003222,-0.00020153,-0.00025
 791,0.00036955,-0.00028563,-0.00005322,0.00013648,0.00027808,0.0044094
 1,-0.00036315,0.00098498,0.00016473,-0.00016014,-0.00002789,0.00002971
 ,-0.00001744,0.00008234,0.00008494,-0.00006263,0.00002374,0.00002547,0
 .00003217,0.00000353,-0.00285838,-0.00160606,-0.00059751,-0.00005204,0
 .00017402,0.00008782,0.00130630,0.00048502,0.00018987,0.00198651,0.000
 18133,0.00005084,0.00003272,-0.00014581,-0.00015505,0.00009128,0.00011
 536,0.00005292,0.00003024,-0.00004146,0.00003278,-0.00027639,-0.000409
 77,0.00021101,-0.00010860,-0.00005397,0.00003516,-0.00008728,0.0003413
 2,0.00015876,0.00019615,0.00008357,-0.00000592,0.01451902,0.00602199,-
 0.00415837,-0.02225155,-0.00079118,-0.00503889,0.00552588,0.00426934,-
 0.00427949,-0.12514694,-0.03362298,0.01553646,0.00126370,0.00030183,0.
 00050738,0.01673881,-0.00570239,0.01233596,0.00187056,0.00001729,0.000
 03639,0.00151695,-0.00019151,0.00135506,0.00031826,0.00225461,-0.00037
 176,-0.00115599,0.00015441,-0.00068729,-0.00018725,0.00037646,-0.00137
 541,-0.00074247,-0.00051807,-0.00030722,-0.00023738,-0.00039779,0.0007
 4162,-0.00027846,-0.00055762,-0.00264112,-0.00003216,-0.00006233,-0.00
 001481,-0.00078675,-0.00023538,-0.00019136,-0.00005620,0.00004816,0.00
 000882,0.00004510,0.00000520,-0.00001778,0.00000451,-0.00000203,0.0000
 2565,0.00064714,0.00035482,0.00008532,0.00043592,0.00038860,0.00006132
 ,-0.00008280,-0.00011706,0.00003373,-0.00050429,-0.00059071,0.00001041
 ,0.00002833,0.00003412,0.00003586,0.00002770,0.00001028,-0.00003386,0.
 00002382,-0.00011244,0.00000476,-0.03560403,0.04600500,0.01456937,0.00
 441505,-0.00359406,0.00026630,0.03992098,0.00442500,-0.01677353,-0.002
 63706,-0.02736170,-0.00546112,0.00166706,0.00141843,0.00071349,0.00088
 679,-0.00013342,-0.00004805,-0.00030825,-0.00066653,-0.00006216,0.0013
 0520,-0.00049397,-0.00045921,-0.00005999,-0.00013849,-0.00023985,-0.00
 008324,-0.00023618,-0.00003544,-0.00259526,-0.00079822,0.00025613,0.00
 234533,-0.00021646,-0.00103027,0.00179737,-0.00012597,-0.00016420,0.00
 379275,0.00300424,0.00120503,-0.00021610,-0.00057696,0.00036317,-0.000
 59452,0.00010392,-0.00044790,-0.00039734,0.00000269,0.00004448,-0.0004
 0529,0.00043247,-0.00032294,-0.00131211,-0.00041259,-0.00020196,-0.000
 18243,-0.00001816,0.00090323,-0.00011194,0.00027321,0.00006348,-0.0001
 5574,-0.00031916,-0.00006737,-0.00155620,-0.00249504,0.00216948,0.0006
 9455,0.00020680,-0.00033087,0.00010804,0.00454482,-0.00240599,0.099946
 73,-0.00023259,0.00023761,-0.00030254,0.00008870,0.00004387,0.00003123
 ,0.00013257,-0.00018408,0.00014717,-0.00020640,0.00068980,0.00012825,0
 .00000244,0.00006503,-0.00002845,0.00003158,-0.00008159,-0.00000244,0.
 00016039,-0.00027658,0.00027782,-0.00013471,0.00001527,-0.00008112,-0.
 00012834,0.00021006,-0.00014768,-0.00003983,0.00004232,0.00009839,0.00
 223637,-0.00047911,0.00042971,0.00008998,-0.00009423,-0.00001995,0.000
 01171,-0.00000531,0.00003334,0.00003626,-0.00002733,0.00000861,0.00000
 529,0.00001112,0.00000055,-0.00136411,-0.00066898,-0.00025180,-0.00005
 656,0.00007884,0.00003094,0.00068346,0.00020455,0.00002668,0.00094499,
 0.00001805,-0.00000479,0.00002743,-0.00006853,-0.00008184,0.00004385,0
 .00004779,0.00002339,0.00002270,-0.00001955,0.00001878,-0.00014159,-0.
 00011903,0.00018920,-0.00004201,-0.00001654,0.00000985,-0.00004521,0.0
 0010585,0.00005527,0.00008661,0.00002124,-0.00002083,0.01051599,0.0050
 3694,0.00180647,0.00072395,0.00639561,-0.01248162,0.00156521,0.0009512
 0,0.00259946,-0.03452679,-0.06683171,0.02945826,0.00087457,-0.00120996
 ,-0.00064357,-0.00684980,-0.00726732,0.00357371,-0.00003867,0.00087811
 ,0.00044502,0.00071616,-0.00068022,-0.00033220,0.00040596,0.00112439,0
 .00003251,-0.00041882,0.00001992,-0.00064158,0.00052842,-0.00057870,-0
 .00020000,-0.00034415,-0.00036477,-0.00016949,-0.00005455,-0.00015606,
 -0.00000566,-0.00018328,0.00016098,-0.00061932,-0.00000916,-0.00003100
 ,-0.00000353,-0.00036729,-0.00009091,-0.00009027,-0.00002741,0.0000214
 6,0.00000272,0.00002147,0.00000188,-0.00000807,0.00000231,-0.00000025,
 0.00001204,0.00030153,0.00014567,0.00003558,0.00020073,0.00016217,0.00
 002804,-0.00004475,-0.00004381,0.00001486,-0.00022264,-0.00025414,0.00
 000867,0.00001025,0.00001149,0.00001385,0.00001392,0.00000342,-0.00001
 502,0.00001173,-0.00004737,0.00000535,0.00237236,0.03337460,0.00428455
 ,0.00280222,-0.00354400,-0.00105361,0.01954770,-0.03196581,-0.00661455
 ,-0.00363426,-0.01531749,-0.00157765,0.00131341,0.00107859,0.00032727,
 0.00024071,-0.00016952,-0.00003925,-0.00022651,-0.00029033,-0.00003676
 ,0.00068264,-0.00042706,-0.00028809,-0.00000929,-0.00004429,-0.0001547
 4,0.00000348,-0.00014584,0.00004507,-0.00127712,-0.00000062,0.00056950
 ,0.00071899,-0.00000858,-0.00046710,0.00114872,-0.00046318,-0.00062640
 ,0.00165093,0.00049098,-0.00005614,-0.00012973,-0.00028925,0.00023217,
 -0.00023149,0.00000368,-0.00019464,-0.00013180,0.00003178,0.00004004,-
 0.00022987,0.00017660,-0.00009852,-0.00051236,0.00017443,0.00025558,-0
 .00004783,-0.00001253,0.00029516,-0.00004063,0.00009143,0.00001536,-0.
 00007542,-0.00010363,0.00000309,-0.00082278,-0.00079111,0.00084611,0.0
 0031973,-0.00006910,-0.00013718,0.00025849,0.00165726,-0.00090709,0.00
 492863,0.07734110,0.00020151,-0.00014035,0.00022997,-0.00009198,-0.000
 03469,-0.00001002,-0.00010733,0.00009304,-0.00011707,0.00017365,-0.000
 45209,-0.00004682,0.00000629,-0.00002744,0.00002111,-0.00000561,0.0000
 4148,-0.00000728,-0.00012248,0.00017325,-0.00021507,0.00009299,-0.0000
 0674,0.00006674,0.00008452,-0.00012006,0.00010289,0.00002512,-0.000056
 74,-0.00007963,-0.00175703,0.00018459,-0.00054081,-0.00005383,0.000064
 71,0.00000746,-0.00000976,0.00000610,-0.00002771,-0.00002410,0.0000165
 2,-0.00000830,-0.00000710,-0.00000848,-0.00000028,0.00094966,0.0006701
 1,0.00019381,-0.00000575,-0.00006842,-0.00002840,-0.00035534,-0.000201
 78,-0.00006555,-0.00062887,-0.00009294,-0.00002751,0.00000092,0.000039
 96,0.00004940,-0.00002502,-0.00003841,-0.00002347,-0.00001364,0.000014
 13,-0.00000941,0.00008719,0.00016126,-0.00004537,0.00002235,-0.0000008
 7,-0.00000072,0.00001891,-0.00010633,-0.00006059,-0.00005346,-0.000031
 18,0.00000642,-0.01006828,0.00049115,0.00031810,-0.00628427,-0.0126041
 4,0.01036929,-0.00111173,0.00334117,-0.00188530,0.01621904,0.02968541,
 -0.06659995,-0.00016040,-0.00075281,-0.00093178,0.01446236,0.00403590,
 -0.00382251,0.00022824,0.00048320,0.00077135,0.00005849,-0.00023311,-0
 .00027354,0.00043049,-0.00017540,-0.00051821,0.00016996,-0.00031149,0.
 00030543,-0.00008163,0.00029559,0.00028003,0.00004542,-0.00029002,0.00
 058472,-0.00000556,0.00005497,-0.00005229,-0.00192175,-0.00025861,-0.0
 0096773,0.00000915,0.00001943,0.00000436,0.00023022,0.00006647,0.00006
 010,0.00001701,-0.00001429,-0.00000068,-0.00001192,-0.00000148,0.00000
 481,-0.00000301,-0.00000004,-0.00000881,-0.00018916,-0.00010917,-0.000
 03337,-0.00012651,-0.00011329,-0.00002257,0.00002055,0.00003433,-0.000
 00620,0.00015127,0.00018301,0.00000230,-0.00000959,-0.00001214,-0.0000
 1145,-0.00000592,-0.00000242,0.00000768,-0.00000687,0.00003475,0.00000
 106,0.01016474,-0.01147183,-0.00194687,-0.00104244,0.00129535,0.002947
 46,-0.01801873,-0.00215374,-0.01943915,-0.00017404,0.00742190,-0.00214
 619,-0.00071487,-0.00064812,-0.00003396,0.00028887,0.00017506,-0.00001
 295,-0.00010213,-0.00011653,-0.00003869,-0.00045533,0.00019460,0.00014
 677,0.00002787,0.00003753,0.00005010,0.00004779,0.00007083,0.00000366,
 0.00049876,0.00046176,-0.00011953,-0.00071466,0.00001172,0.00040935,-0
 .00028898,-0.00016649,-0.00017413,-0.00074845,-0.00134036,-0.00030552,
 0.00004150,0.00017077,-0.00010681,0.00008738,-0.00004738,0.00008530,0.
 00011376,0.00003449,-0.00003276,0.00009081,-0.00015289,0.00006069,0.00
 036254,0.00027085,0.00017436,0.00007552,0.00000251,-0.00022562,0.00001
 068,-0.00005002,0.00000829,0.00003272,0.00009018,0.00001971,0.00055350
 ,0.00064698,-0.00097438,-0.00018133,-0.00005138,0.00023097,-0.00009456
 ,-0.00131810,0.00096032,-0.00263835,-0.01711212,0.08124934,-0.00139231
 ,0.00188263,-0.00162578,0.00093077,-0.00121882,-0.00200368,0.00080055,
 -0.00112449,0.00088449,-0.00066843,0.01835121,0.00906837,-0.00016109,0
 .00033946,0.00047225,0.00018618,-0.00126199,0.00048256,0.00092743,-0.0
 0161083,0.00175368,-0.00089562,-0.00008345,-0.00061713,-0.00139623,0.0
 0138197,-0.00108768,-0.00095443,-0.00288475,-0.00282365,0.02747043,-0.
 00596793,0.00868796,0.00144574,-0.00236621,-0.00155947,0.00010812,-0.0
 0005950,0.00024178,0.00026436,-0.00016014,0.00011479,0.00004760,0.0000
 8095,-0.00000205,-0.02000205,-0.02859183,0.00307658,0.00153422,0.00147
 345,-0.00065381,-0.00151139,0.00583299,-0.00509144,0.01036861,0.004460
 81,-0.00223644,-0.00021552,0.00007419,0.00017769,-0.00002715,0.0008741
 4,0.00080133,-0.00016045,-0.00006981,-0.00028349,-0.00090876,0.0003992
 2,0.00386319,0.00002959,0.00075399,-0.00086699,0.00029702,-0.00089663,
 0.00000257,0.00012883,-0.00040265,-0.00023069,-0.25323713,-0.00818507,
 -0.04898819,-0.01670804,-0.00650764,0.00451293,0.00491719,0.00874158,-
 0.00845220,0.01492008,0.00013458,0.00320854,0.00123695,0.00060696,-0.0
 0021477,0.00537679,0.00050092,0.00085235,0.00057158,-0.00044548,0.0009
 0419,0.00072512,0.00077866,-0.00139842,0.00037194,-0.00093202,0.000104
 00,0.00004490,-0.00010055,0.00035279,0.00039792,0.00011813,0.00076438,
 0.00045740,0.00020857,0.00039359,-0.00016829,0.00016086,0.00003473,-0.
 00015328,0.00000257,-0.00003195,-0.00013854,-0.00017927,-0.00007946,-0
 .00168190,-0.00056235,-0.00036253,-0.00020733,0.00016047,0.00002903,0.
 00012932,0.00004404,-0.00002860,0.00001607,0.00001274,0.00004494,0.001
 58265,0.00150533,-0.00002257,0.00097187,0.00102925,0.00008474,0.000208
 81,-0.00046719,0.00025059,-0.00180283,-0.00258349,0.00022418,0.0000442
 5,0.00015708,0.00005119,0.00008149,0.00013746,-0.00013699,-0.00001671,
 -0.00033422,0.00005318,-0.00276875,0.00156625,0.00072104,0.00037761,-0
 .00010137,0.00012223,0.00502584,0.00080577,-0.00148724,0.00119586,-0.0
 0094571,-0.00074256,0.00008377,0.00012197,0.00007225,0.00006017,-0.000
 04671,0.00000303,0.00003410,0.00001113,-0.00006614,0.00020808,-0.00000
 373,-0.00004136,-0.00003248,-0.00004112,-0.00003056,-0.00008076,0.0000
 0239,-0.00001664,0.00060128,-0.00091996,-0.00145177,-0.00037668,-0.000
 26979,0.00076978,-0.00053526,0.00156189,0.00159440,-0.00014453,0.00042
 299,0.00058519,0.00004960,0.00070252,-0.00036089,0.00020421,0.00020668
 ,0.00030260,0.00025156,-0.00025663,-0.00017368,0.00012737,-0.00004542,
 -0.00006383,-0.00021398,-0.00103237,-0.00094386,-0.00003526,0.00000080
 ,0.00012692,-0.00001901,0.00007735,0.00006457,0.00005367,-0.00005949,-
 0.00009773,0.00074197,-0.00088255,-0.00050423,-0.00013751,0.00037321,0
 .00024088,-0.00041570,0.00038291,0.00016790,-0.00641223,-0.00363679,0.
 00232004,0.22797081,0.00076261,-0.00001190,0.00050200,-0.00013973,-0.0
 0041994,-0.00039669,-0.00035761,-0.00016049,-0.00019721,0.00638523,-0.
 00473779,0.00057615,-0.00002782,-0.00021159,0.00016105,-0.00003931,0.0
 0006508,0.00004714,-0.00038626,0.00024026,-0.00040882,0.00020197,0.000
 00871,0.00013358,0.00023011,0.00001135,0.00016128,0.00069221,-0.000629
 00,-0.00073031,-0.00928563,-0.01873417,-0.00350761,-0.00042848,-0.0000
 7989,-0.00001333,-0.00003282,0.00002132,-0.00005700,-0.00005381,0.0000
 2767,-0.00002850,-0.00004231,-0.00002335,-0.00000897,-0.00328328,0.013
 41991,-0.00521010,-0.00071655,-0.00068681,0.00041323,0.00326862,-0.002
 11209,0.00132608,-0.00299424,-0.00330894,0.00124144,0.00028298,-0.0005
 0733,-0.00082479,0.00027077,-0.00029681,-0.00023875,0.00025094,0.00000
 902,0.00031177,0.00004081,0.00038400,0.00208295,-0.00005288,-0.0001012
 7,-0.00000667,-0.00031214,-0.00013791,-0.00036014,0.00019592,-0.000107
 20,-0.00057135,-0.00734017,-0.04816586,0.02122831,-0.01425268,0.002728
 12,-0.01167068,0.01339355,0.00016853,-0.00274410,-0.00650206,-0.000170
 77,0.00405577,0.00029292,-0.00147293,-0.00077772,0.00090372,-0.0006153
 6,0.00411699,-0.00012985,-0.00076380,-0.00081936,0.00002528,0.00142067
 ,0.00048641,0.00031184,-0.00021072,0.00025618,-0.00001492,-0.00000836,
 -0.00006298,-0.00011651,0.00002894,-0.00018378,0.00005539,0.00009241,0
 .00005200,0.00000739,-0.00001902,-0.00002042,-0.00000130,-0.00001029,0
 .00001653,0.00004977,0.00001673,0.00002771,0.00003755,0.00009079,-0.00
 000703,0.00003035,-0.00002734,-0.00000644,-0.00001382,-0.00001486,0.00
 000026,-0.00000227,-0.00000388,0.00000056,-0.00014602,-0.00042626,0.00
 003073,-0.00005298,-0.00015104,0.00000869,-0.00021624,0.00011587,-0.00
 006804,0.00029759,0.00074679,-0.00006486,0.00002245,-0.00004044,0.0000
 0519,0.00002335,-0.00003812,0.00002180,0.00003049,-0.00005751,0.000014
 27,0.00043906,-0.00017902,-0.00010044,-0.00007517,0.00002678,-0.000011
 97,-0.00099387,-0.00051289,0.00022763,-0.00022521,0.00007254,0.0000663
 2,-0.00001883,-0.00002091,-0.00001068,-0.00001876,-0.00000018,-0.00000
 634,-0.00000527,-0.00000432,0.00000987,-0.00003235,0.00000102,0.000005
 71,0.00000723,0.00000838,-0.00000269,0.00001293,0.00000020,0.00000738,
 -0.00031675,0.00019639,0.00029378,0.00014758,-0.00002547,-0.00020372,0
 .00014519,-0.00030901,-0.00031772,0.00002638,0.00002071,-0.00000866,0.
 00014501,-0.00007981,0.00027164,-0.00001244,0.00001631,-0.00017672,-0.
 00001646,0.00000089,-0.00001825,-0.00004792,0.00002017,0.00001728,-0.0
 0003387,0.00016645,0.00017103,0.00000042,-0.00000311,-0.00000881,-0.00
 000897,-0.00000448,0.00000333,-0.00002109,0.00000752,0.00001633,-0.000
 07232,0.00004951,-0.00002450,0.00003469,-0.00002984,0.00002113,0.00004
 615,-0.00003131,0.00002180,0.00097463,0.00211433,-0.00018116,0.0187979
 0,0.06336600,-0.00028593,0.00049570,-0.00045727,-0.00009690,-0.0005966
 9,-0.00068019,0.00021366,-0.00026819,0.00019262,0.00617005,0.00381272,
 0.00361894,-0.00000488,0.00041197,0.00000413,0.00012791,-0.00031503,0.
 00009508,0.00020306,-0.00034206,0.00034489,-0.00023693,0.00000531,-0.0
 0012037,-0.00032042,0.00026034,-0.00027600,-0.00014734,-0.00183981,-0.
 00091688,0.00335436,-0.00115595,-0.01114078,0.00104066,-0.00182271,-0.
 00114923,0.00002431,-0.00000697,0.00005093,0.00006520,-0.00004579,0.00
 001805,0.00000988,0.00002168,0.00000516,-0.00231222,-0.01010130,0.0045
 3064,-0.00044137,0.00082155,-0.00033363,-0.00186646,0.00170476,-0.0033
 4926,0.00356984,0.00212025,-0.00170764,0.00013531,-0.00068766,-0.00030
 356,0.00031395,0.00020276,0.00016474,-0.00001618,-0.00008478,-0.000163
 77,0.00087495,0.00138175,0.00050668,-0.00008596,-0.00008682,-0.0002299
 4,0.00020573,-0.00061672,-0.00071329,-0.00017122,-0.00041328,0.0000342
 0,-0.05143858,0.02113953,-0.07018880,0.01349183,-0.00854499,0.01036316
 ,-0.01610687,-0.00514169,-0.00260449,0.00879756,0.00535912,0.00091065,
 0.00054465,-0.00077839,-0.00114271,-0.00080823,0.00433845,-0.00311947,
 0.00066478,-0.00076027,-0.00016556,-0.00054781,0.00053659,0.00076444,0
 .00014854,-0.00016093,0.00010750,0.00008519,-0.00008519,0.00011540,-0.
 00018537,0.00010997,-0.00010792,0.00011508,0.00001900,0.00012011,-0.00
 003142,0.00000346,-0.00000509,-0.00008527,-0.00004256,-0.00002208,-0.0
 0003970,-0.00004109,-0.00002666,-0.00036163,-0.00014194,-0.00005109,-0
 .00005648,0.00004399,0.00001469,0.00003825,0.00001521,-0.00000785,-0.0
 0000653,0.00000428,0.00000286,0.00040362,0.00044458,-0.00012744,0.0002
 1512,0.00025473,-0.00000393,0.00014327,-0.00015209,0.00009984,-0.00044
 951,-0.00075924,0.00017804,-0.00002408,0.00002791,-0.00000130,0.000023
 33,0.00005131,-0.00005031,-0.00001919,0.00000138,0.00004371,-0.0009434
 5,0.00100706,0.00032529,0.00014247,-0.00008042,0.00004400,0.00219804,0
 .00018139,-0.00083270,0.00025546,-0.00061541,-0.00028935,0.00004258,0.
 00004996,0.00003018,0.00002256,-0.00001402,-0.00000417,0.00000401,-0.0
 0000526,-0.00001558,0.00006247,-0.00001007,-0.00001663,-0.00000624,-0.
 00001106,-0.00001671,-0.00001795,-0.00000158,-0.00000207,-0.00012967,-
 0.00011255,-0.00032202,0.00014063,-0.00019362,0.00032494,-0.00004311,0
 .00025414,0.00027659,0.00000197,0.00022042,0.00024514,0.00008370,0.000
 14961,0.00002464,0.00003588,0.00010423,-0.00015381,0.00003988,-0.00004
 467,-0.00008067,-0.00000002,0.00000274,-0.00001250,-0.00010900,-0.0001
 9523,-0.00020364,-0.00001200,-0.00000070,0.00005126,-0.00001371,0.0000
 2604,0.00002222,0.00000108,-0.00002086,-0.00001877,0.00013669,-0.00024
 024,-0.00012591,-0.00001430,0.00008434,0.00009219,-0.00009023,0.000167
 56,0.00002003,-0.00281639,-0.00094400,0.00227164,0.03619502,-0.0083539
 7,0.07524645\\-0.00000398,-0.00000096,-0.00000377,0.00103140,-0.000484
 77,-0.00022074,0.00000105,0.00000163,-0.00000361,0.00000044,0.00001327
 ,0.00000745,0.00000036,0.00000235,-0.00000130,0.00000233,-0.00000054,0
 .00000127,0.00000004,-0.00000116,0.00000139,-0.00155948,0.00107891,-0.
 00043616,-0.00000059,0.00000268,0.00000084,-0.00000146,-0.00000191,-0.
 00000070,-0.00000054,-0.00001478,-0.00000507,0.00000020,-0.00000135,-0
 .00000220,0.00000050,0.00000132,0.00000178,-0.00000230,-0.00000086,0.0
 0000101,-0.00000047,0.00000126,-0.00000019,0.00000466,0.00000266,-0.00
 001219,-0.00000419,-0.00000269,0.00000320,0.00000407,-0.00000728,0.000
 00741,-0.00001057,0.00000820,0.00000962,0.00000075,-0.00000085,-0.0000
 0110,0.00000181,0.00000038,-0.00000256,0.00000198,-0.00000186,-0.00000
 436,-0.00000080,-0.00000232,0.00000314,0.00000054,0.00000070,0.0000006
 9,-0.00000031,-0.00000064,0.00000118,0.00000232,0.00000070,-0.00000002
 ,0.00000345,0.00000942,-0.00000028,0.00000145,-0.00001564,0.00000997,0
 .00001045,-0.00000151,-0.00000375,-0.00001069,0.00001444,-0.00002670,-
 0.00000051,0.00000319,0.00000069,-0.00000600,-0.00000903,0.00001656,-0
 .00000113,0.00000080,0.00000100,-0.00000354,0.00000610,-0.00000476,0.0
 0194477,0.00068639,0.00077174,0.00000054,-0.00000098,0.00000109,0.0000
 0074,-0.00000266,-0.00000055,0.00000042,-0.00000067,0.00000080,0.00000
 103,0.00000012,0.00000200,0.00000097,-0.00000012,0.00000038,-0.0008871
 4,0.00068253,-0.00045045,-0.00000481,0.00000251,-0.00000275,-0.0000017
 8,-0.00000155,0.00000104,-0.00000117,0.00000213,0.00000032,-0.00000301
 ,-0.00000087,0.00000068,0.00000491,-0.00000627,-0.00000186,0.00000238,
 0.00000204,-0.00000008,-0.00009446,-0.00195154,0.00023951,-0.00000274,
 -0.00000633,0.00000049,0.00000130,-0.00000208,0.00000019,-0.00000093,-
 0.00000259,0.00000074,-0.00000193,-0.00000234,-0.00000188,-0.00000689,
 0.00001270,0.00000657,-0.00000024,-0.00000263,-0.00000004,0.00000043,-
 0.00001298,0.,0.00000446,0.00000362,-0.00001052,-0.00019456,0.00016950
 ,0.00007864,0.00000246,0.00000086,-0.00000043,0.00000144,0.00000030,-0
 .00000081,0.00000318,0.00000045,-0.00000061,0.00000426,0.00000163,-0.0
 0000082,0.00000250,0.00000183,-0.00000060,-0.00000988,0.00000494,0.000
 00649,0.00018120,-0.00015723,-0.00018930,0.00000302,-0.00000494,-0.000
 00598,0.00000508,-0.00000136,0.00000036,-0.00000041,-0.00000194,-0.000
 00056,0.00000079,-0.00000072,-0.00000008,0.00000066,-0.00000019,-0.000
 00009,-0.00042776,-0.00000879,0.00020252,0.00000281,0.00000130,0.00000
 414,0.00000108,-0.00000324,0.00000057,0.00000126,-0.00000500,-0.000001
 78,0.00000118,-0.00000227,0.00000007,0.00000128,0.00000006,-0.00000507
 ,-0.00000218,0.00000128,0.00000444,-0.00000188,-0.00000176,0.00000924,
 0.00000881,0.00000143,0.00000530,-0.00000241,0.00000556,-0.00000082\\\
 @


 HONESTY IN A LAWYER IS LIKE A HEN'S HIND LEGS.
  -- MAGNUS OLESON, LAKE WOBEGON PATRIARCH, C.1875
 Job cpu time:       0 days  9 hours  7 minutes  6.9 seconds.
 File lengths (MBytes):  RWF=   4198 Int=      0 D2E=      0 Chk=     34 Scr=      1
 Normal termination of Gaussian 09 at Thu Aug 27 10:15:30 2020.
