 Entering Gaussian System, Link 0=g09
 Initial command:
 /global/apps/Gaussian/09.d01/l1.exe "/global/work/bentesirinbarge/2540349/Gau-12036.inp" -scrdir="/global/work/bentesirinbarge/2540349/"
 Entering Link 1 = /global/apps/Gaussian/09.d01/l1.exe PID=     12037.
  
 Copyright (c) 1988,1990,1992,1993,1995,1998,2003,2009,2013,
            Gaussian, Inc.  All Rights Reserved.
  
 This is part of the Gaussian(R) 09 program.  It is based on
 the Gaussian(R) 03 system (copyright 2003, Gaussian, Inc.),
 the Gaussian(R) 98 system (copyright 1998, Gaussian, Inc.),
 the Gaussian(R) 94 system (copyright 1995, Gaussian, Inc.),
 the Gaussian 92(TM) system (copyright 1992, Gaussian, Inc.),
 the Gaussian 90(TM) system (copyright 1990, Gaussian, Inc.),
 the Gaussian 88(TM) system (copyright 1988, Gaussian, Inc.),
 the Gaussian 86(TM) system (copyright 1986, Carnegie Mellon
 University), and the Gaussian 82(TM) system (copyright 1983,
 Carnegie Mellon University). Gaussian is a federally registered
 trademark of Gaussian, Inc.
  
 This software contains proprietary and confidential information,
 including trade secrets, belonging to Gaussian, Inc.
  
 This software is provided under written license and may be
 used, copied, transmitted, or stored only in accord with that
 written license.
  
 The following legend is applicable only to US Government
 contracts under FAR:
  
                    RESTRICTED RIGHTS LEGEND
  
 Use, reproduction and disclosure by the US Government is
 subject to restrictions as set forth in subparagraphs (a)
 and (c) of the Commercial Computer Software - Restricted
 Rights clause in FAR 52.227-19.
  
 Gaussian, Inc.
 340 Quinnipiac St., Bldg. 40, Wallingford CT 06492
  
  
 ---------------------------------------------------------------
 Warning -- This program may not be used in any manner that
 competes with the business of Gaussian, Inc. or will provide
 assistance to any competitor of Gaussian, Inc.  The licensee
 of this program is prohibited from giving any competitor of
 Gaussian, Inc. access to this program.  By using this program,
 the user acknowledges that Gaussian, Inc. is engaged in the
 business of creating and licensing software in the field of
 computational chemistry and represents and warrants to the
 licensee that it is not a competitor of Gaussian, Inc. and that
 it will not use this program in any manner prohibited above.
 ---------------------------------------------------------------
  

 Cite this work as:
 Gaussian 09, Revision D.01,
 M. J. Frisch, G. W. Trucks, H. B. Schlegel, G. E. Scuseria, 
 M. A. Robb, J. R. Cheeseman, G. Scalmani, V. Barone, B. Mennucci, 
 G. A. Petersson, H. Nakatsuji, M. Caricato, X. Li, H. P. Hratchian, 
 A. F. Izmaylov, J. Bloino, G. Zheng, J. L. Sonnenberg, M. Hada, 
 M. Ehara, K. Toyota, R. Fukuda, J. Hasegawa, M. Ishida, T. Nakajima, 
 Y. Honda, O. Kitao, H. Nakai, T. Vreven, J. A. Montgomery, Jr., 
 J. E. Peralta, F. Ogliaro, M. Bearpark, J. J. Heyd, E. Brothers, 
 K. N. Kudin, V. N. Staroverov, T. Keith, R. Kobayashi, J. Normand, 
 K. Raghavachari, A. Rendell, J. C. Burant, S. S. Iyengar, J. Tomasi, 
 M. Cossi, N. Rega, J. M. Millam, M. Klene, J. E. Knox, J. B. Cross, 
 V. Bakken, C. Adamo, J. Jaramillo, R. Gomperts, R. E. Stratmann, 
 O. Yazyev, A. J. Austin, R. Cammi, C. Pomelli, J. W. Ochterski, 
 R. L. Martin, K. Morokuma, V. G. Zakrzewski, G. A. Voth, 
 P. Salvador, J. J. Dannenberg, S. Dapprich, A. D. Daniels, 
 O. Farkas, J. B. Foresman, J. V. Ortiz, J. Cioslowski, 
 and D. J. Fox, Gaussian, Inc., Wallingford CT, 2013.
 
 ******************************************
 Gaussian 09:  EM64L-G09RevD.01 24-Apr-2013
                22-Aug-2020 
 ******************************************
 %LindaWorkers=cib25-1
 %NProcShared=20
 Will use up to   20 processors via shared memory.
 %chk=PNP_79_3.chk
 SetLPE:  input flags=""
 SetLPE:    new flags=" -nodelist 'cib25-1.ibnet'"
 Will use up to    1 processors via Linda.
 ----------------------------------------------------------------------
 #p opt=(calcfc,ts,modredundant,noeigentest) rb3lyp/6-31g(d,p) geom=con
 nectivity empiricaldispersion=gd3
 ----------------------------------------------------------------------
 1/5=1,10=4,11=1,14=-1,18=120,26=3,38=1,57=2/1,3;
 2/9=110,12=2,17=6,18=5,40=1/2;
 3/5=1,6=6,7=101,11=2,16=1,25=1,30=1,71=2,74=-5,116=1,124=31,140=1/1,2,3;
 4//1;
 5/5=2,38=5/2;
 8/6=4,10=90,11=11/1;
 11/6=1,8=1,9=11,15=111,16=1/1,2,10;
 10/6=1,13=1/2;
 6/7=2,8=2,9=2,10=2,28=1/1;
 7/10=1,18=20,25=1/1,2,3,16;
 1/5=1,10=4,11=1,14=-1,18=20,26=3/3(2);
 2/9=110/2;
 99//99;
 2/9=110/2;
 3/5=1,6=6,7=101,11=2,16=1,25=1,30=1,71=1,74=-5,116=1,124=31/1,2,3;
 4/5=5,16=3,69=1/1;
 5/5=2,38=5/2;
 7//1,2,3,16;
 1/5=1,11=1,14=-1,18=20,26=3/3(-5);
 2/9=110/2;
 6/7=2,8=2,9=2,10=2,19=2,28=1/1;
 99/9=1/99;
 Leave Link    1 at Sat Aug 22 20:30:29 2020, MaxMem=           0 cpu:         1.8
 (Enter /global/apps/Gaussian/09.d01/l101.exe)
 -----
 TITLE
 -----
 Symbolic Z-matrix:
 Charge = -1 Multiplicity = 1
 C                    -3.7811    3.42631  -1.19668 
 C                    -2.56386   3.39221  -0.271 
 N                    -4.73587   2.4776   -1.04159 
 C                    -2.36357   2.24279   0.74687 
 H                    -1.68417   3.46058  -0.92118 
 H                    -2.60077   4.33908   0.28332 
 O                    -3.88462   4.33154  -2.0282 
 C                    -5.91548   2.5201   -1.88668 
 H                    -4.61219   1.68543  -0.4031 
 H                    -1.60364   2.57833   1.47276 
 O                    -1.93745   1.01078   0.19724 
 H                    -3.29074   2.08114   1.31412 
 H                    -5.63865   2.55229  -2.94593 
 H                    -6.51892   3.41226  -1.68171 
 H                    -6.51715   1.62914  -1.69598 
 C                    -3.17071  -0.29364   0.1375 
 C                    -3.06309  -0.65897  -1.32757 
 O                    -2.49081  -1.26517   0.88721 
 O                    -4.24438   0.18772   0.60869 
 H                    -2.04415  -0.94893  -1.58806 
 H                    -3.74193  -1.49624  -1.52137 
 H                    -3.36836   0.19816  -1.92765 
 C                    -2.54766  -1.06613   2.2939 
 H                    -2.04248  -1.92262   2.74702 
 H                    -2.02863  -0.13988   2.57218 
 H                    -3.57862  -1.00805   2.6562 
 N                     0.45422   0.66727   0.80432 
 C                     1.38653   1.38494   0.17838 
 C                     1.0796   -0.01008   1.83008 
 N                     2.57787   1.19528   0.75475 
 H                     1.20408   2.02454  -0.67095 
 C                     2.41712   0.31144   1.80644 
 H                     0.53381  -0.67112   2.48424 
 C                     3.56148  -0.16458   2.6497 
 C                     4.38048   0.96805   3.2965 
 H                     3.15271  -0.82237   3.42515 
 H                     4.2303   -0.78278   2.04018 
 H                     5.22849   0.5499    3.84729 
 H                     3.76891   1.55062   3.99433 
 H                     4.76694   1.65106   2.53563 
 C                    -7.45077  -0.85943  -0.15408 
 C                    -6.91767  -2.24873   0.18586 
 H                    -6.72421  -0.0666    0.03441 
 H                    -8.35822  -0.67371   0.42854 
 H                    -7.73748  -0.84946  -1.2101 
 N                    -5.66369  -2.24039   0.69903 
 O                    -7.58333  -3.26684  -0.00602 
 C                    -4.93185  -3.44839   1.01089 
 H                    -5.18393  -1.34306   0.78739 
 H                    -5.35723  -4.27761   0.4405 
 H                    -4.9971   -3.70593   2.0777 
 H                    -3.88022  -3.30932   0.75213 
 C                     5.6661    1.39716  -0.11243 
 C                     7.13335   1.83444  -0.12758 
 O                     4.8158    2.30287   0.15426 
 O                     5.3902    0.18577  -0.32645 
 C                     8.08756   0.80627  -0.72911 
 H                     7.40487   2.05313   0.91405 
 H                     7.18523   2.79469  -0.65269 
 H                     9.12486   1.15706  -0.68786 
 H                     7.83729   0.60521  -1.77541 
 H                     8.02146  -0.14562  -0.19596 
 N                     3.56324  -1.76385  -1.3735 
 C                     2.11967  -1.85059  -1.23265 
 C                     4.22165  -2.52633  -2.30223 
 H                     4.04076  -0.94072  -1.00072 
 H                     1.83318  -1.61721  -0.20526 
 H                     1.59326  -1.16011  -1.90553 
 H                     1.80483  -2.86536  -1.48005 
 C                     5.71728  -2.25739  -2.3982 
 O                     3.6661   -3.39859  -2.9669 
 H                     5.93485  -1.18644  -2.38973 
 H                     6.22047  -2.68148  -1.5233 
 H                     6.09744  -2.72646  -3.30618 
 O                     5.77287  -2.23674   0.93027 
 H                     4.97179  -2.54278   0.48082 
 H                     5.87278  -1.34375   0.54317 
 H                     3.52952   1.6664    0.44698 
 H                    -0.64492   0.67985   0.52136 
 
 Add virtual bond connecting atoms H78        and N30        Dist= 2.09D+00.
 Add virtual bond connecting atoms H79        and N27        Dist= 2.14D+00.
 Add virtual bond connecting atoms H79        and O11        Dist= 2.59D+00.
 Add virtual bond connecting atoms H78        and O55        Dist= 2.77D+00.
 Add virtual bond connecting atoms C16        and O11        Dist= 3.39D+00.
 Add virtual bond connecting atoms O19        and H9         Dist= 3.49D+00.
 Add virtual bond connecting atoms H49        and O19        Dist= 3.41D+00.
 Add virtual bond connecting atoms H77        and O56        Dist= 3.45D+00.
 Add virtual bond connecting atoms H66        and O56        Dist= 3.56D+00.
 The following ModRedundant input section has been read:
 X      57 F                                                                   
 X      35 F                                                                   
 X       2 F                                                                   
 X      64 F                                                                   
 X      70 F                                                                   
 X       8 F                                                                   
 X      41 F                                                                   
 X      48 F                                                                   
 
 NAtoms=     79 NQM=       79 NQMF=       0 NMMI=      0 NMMIF=      0
                NMic=       0 NMicF=      0.
                    Isotopes and Nuclear Properties:
 (Nuclear quadrupole moments (NQMom) in fm**2, nuclear magnetic moments (NMagM)
  in nuclear magnetons)

  Atom         1           2           3           4           5           6           7           8           9          10
 IAtWgt=          12          12          14          12           1           1          16          12           1           1
 AtmWgt=  12.0000000  12.0000000  14.0030740  12.0000000   1.0078250   1.0078250  15.9949146  12.0000000   1.0078250   1.0078250
 NucSpn=           0           0           2           0           1           1           0           0           1           1
 AtZEff=   0.0000000   0.0000000   0.0000000   0.0000000   0.0000000   0.0000000   0.0000000   0.0000000   0.0000000   0.0000000
 NQMom=    0.0000000   0.0000000   2.0440000   0.0000000   0.0000000   0.0000000   0.0000000   0.0000000   0.0000000   0.0000000
 NMagM=    0.0000000   0.0000000   0.4037610   0.0000000   2.7928460   2.7928460   0.0000000   0.0000000   2.7928460   2.7928460
 AtZNuc=   6.0000000   6.0000000   7.0000000   6.0000000   1.0000000   1.0000000   8.0000000   6.0000000   1.0000000   1.0000000

  Atom        11          12          13          14          15          16          17          18          19          20
 IAtWgt=          16           1           1           1           1          12          12          16          16           1
 AtmWgt=  15.9949146   1.0078250   1.0078250   1.0078250   1.0078250  12.0000000  12.0000000  15.9949146  15.9949146   1.0078250
 NucSpn=           0           1           1           1           1           0           0           0           0           1
 AtZEff=   0.0000000   0.0000000   0.0000000   0.0000000   0.0000000   0.0000000   0.0000000   0.0000000   0.0000000   0.0000000
 NQMom=    0.0000000   0.0000000   0.0000000   0.0000000   0.0000000   0.0000000   0.0000000   0.0000000   0.0000000   0.0000000
 NMagM=    0.0000000   2.7928460   2.7928460   2.7928460   2.7928460   0.0000000   0.0000000   0.0000000   0.0000000   2.7928460
 AtZNuc=   8.0000000   1.0000000   1.0000000   1.0000000   1.0000000   6.0000000   6.0000000   8.0000000   8.0000000   1.0000000

  Atom        21          22          23          24          25          26          27          28          29          30
 IAtWgt=           1           1          12           1           1           1          14          12          12          14
 AtmWgt=   1.0078250   1.0078250  12.0000000   1.0078250   1.0078250   1.0078250  14.0030740  12.0000000  12.0000000  14.0030740
 NucSpn=           1           1           0           1           1           1           2           0           0           2
 AtZEff=   0.0000000   0.0000000   0.0000000   0.0000000   0.0000000   0.0000000   0.0000000   0.0000000   0.0000000   0.0000000
 NQMom=    0.0000000   0.0000000   0.0000000   0.0000000   0.0000000   0.0000000   2.0440000   0.0000000   0.0000000   2.0440000
 NMagM=    2.7928460   2.7928460   0.0000000   2.7928460   2.7928460   2.7928460   0.4037610   0.0000000   0.0000000   0.4037610
 AtZNuc=   1.0000000   1.0000000   6.0000000   1.0000000   1.0000000   1.0000000   7.0000000   6.0000000   6.0000000   7.0000000

  Atom        31          32          33          34          35          36          37          38          39          40
 IAtWgt=           1          12           1          12          12           1           1           1           1           1
 AtmWgt=   1.0078250  12.0000000   1.0078250  12.0000000  12.0000000   1.0078250   1.0078250   1.0078250   1.0078250   1.0078250
 NucSpn=           1           0           1           0           0           1           1           1           1           1
 AtZEff=   0.0000000   0.0000000   0.0000000   0.0000000   0.0000000   0.0000000   0.0000000   0.0000000   0.0000000   0.0000000
 NQMom=    0.0000000   0.0000000   0.0000000   0.0000000   0.0000000   0.0000000   0.0000000   0.0000000   0.0000000   0.0000000
 NMagM=    2.7928460   0.0000000   2.7928460   0.0000000   0.0000000   2.7928460   2.7928460   2.7928460   2.7928460   2.7928460
 AtZNuc=   1.0000000   6.0000000   1.0000000   6.0000000   6.0000000   1.0000000   1.0000000   1.0000000   1.0000000   1.0000000

  Atom        41          42          43          44          45          46          47          48          49          50
 IAtWgt=          12          12           1           1           1          14          16          12           1           1
 AtmWgt=  12.0000000  12.0000000   1.0078250   1.0078250   1.0078250  14.0030740  15.9949146  12.0000000   1.0078250   1.0078250
 NucSpn=           0           0           1           1           1           2           0           0           1           1
 AtZEff=   0.0000000   0.0000000   0.0000000   0.0000000   0.0000000   0.0000000   0.0000000   0.0000000   0.0000000   0.0000000
 NQMom=    0.0000000   0.0000000   0.0000000   0.0000000   0.0000000   2.0440000   0.0000000   0.0000000   0.0000000   0.0000000
 NMagM=    0.0000000   0.0000000   2.7928460   2.7928460   2.7928460   0.4037610   0.0000000   0.0000000   2.7928460   2.7928460
 AtZNuc=   6.0000000   6.0000000   1.0000000   1.0000000   1.0000000   7.0000000   8.0000000   6.0000000   1.0000000   1.0000000

  Atom        51          52          53          54          55          56          57          58          59          60
 IAtWgt=           1           1          12          12          16          16          12           1           1           1
 AtmWgt=   1.0078250   1.0078250  12.0000000  12.0000000  15.9949146  15.9949146  12.0000000   1.0078250   1.0078250   1.0078250
 NucSpn=           1           1           0           0           0           0           0           1           1           1
 AtZEff=   0.0000000   0.0000000   0.0000000   0.0000000   0.0000000   0.0000000   0.0000000   0.0000000   0.0000000   0.0000000
 NQMom=    0.0000000   0.0000000   0.0000000   0.0000000   0.0000000   0.0000000   0.0000000   0.0000000   0.0000000   0.0000000
 NMagM=    2.7928460   2.7928460   0.0000000   0.0000000   0.0000000   0.0000000   0.0000000   2.7928460   2.7928460   2.7928460
 AtZNuc=   1.0000000   1.0000000   6.0000000   6.0000000   8.0000000   8.0000000   6.0000000   1.0000000   1.0000000   1.0000000

  Atom        61          62          63          64          65          66          67          68          69          70
 IAtWgt=           1           1          14          12          12           1           1           1           1          12
 AtmWgt=   1.0078250   1.0078250  14.0030740  12.0000000  12.0000000   1.0078250   1.0078250   1.0078250   1.0078250  12.0000000
 NucSpn=           1           1           2           0           0           1           1           1           1           0
 AtZEff=   0.0000000   0.0000000   0.0000000   0.0000000   0.0000000   0.0000000   0.0000000   0.0000000   0.0000000   0.0000000
 NQMom=    0.0000000   0.0000000   2.0440000   0.0000000   0.0000000   0.0000000   0.0000000   0.0000000   0.0000000   0.0000000
 NMagM=    2.7928460   2.7928460   0.4037610   0.0000000   0.0000000   2.7928460   2.7928460   2.7928460   2.7928460   0.0000000
 AtZNuc=   1.0000000   1.0000000   7.0000000   6.0000000   6.0000000   1.0000000   1.0000000   1.0000000   1.0000000   6.0000000

  Atom        71          72          73          74          75          76          77          78          79
 IAtWgt=          16           1           1           1          16           1           1           1           1
 AtmWgt=  15.9949146   1.0078250   1.0078250   1.0078250  15.9949146   1.0078250   1.0078250   1.0078250   1.0078250
 NucSpn=           0           1           1           1           0           1           1           1           1
 AtZEff=   0.0000000   0.0000000   0.0000000   0.0000000   0.0000000   0.0000000   0.0000000   0.0000000   0.0000000
 NQMom=    0.0000000   0.0000000   0.0000000   0.0000000   0.0000000   0.0000000   0.0000000   0.0000000   0.0000000
 NMagM=    0.0000000   2.7928460   2.7928460   2.7928460   0.0000000   2.7928460   2.7928460   2.7928460   2.7928460
 AtZNuc=   8.0000000   1.0000000   1.0000000   1.0000000   8.0000000   1.0000000   1.0000000   1.0000000   1.0000000
 Leave Link  101 at Sat Aug 22 20:30:29 2020, MaxMem=    33554432 cpu:         3.4
 (Enter /global/apps/Gaussian/09.d01/l103.exe)

 GradGradGradGradGradGradGradGradGradGradGradGradGradGradGradGradGradGrad
 Berny optimization.
 Initialization pass.
                           ----------------------------
                           !    Initial Parameters    !
                           ! (Angstroms and Degrees)  !
 --------------------------                            --------------------------
 ! Name  Definition              Value          Derivative Info.                !
 --------------------------------------------------------------------------------
 ! X2    R(2,-1)                -2.5639         frozen, calculate D2E/DX2 analyt!
 ! Y2    R(2,-2)                 3.3922         frozen, calculate D2E/DX2 analyt!
 ! Z2    R(2,-3)                -0.271          frozen, calculate D2E/DX2 analyt!
 ! X8    R(8,-1)                -5.9155         frozen, calculate D2E/DX2 analyt!
 ! Y8    R(8,-2)                 2.5201         frozen, calculate D2E/DX2 analyt!
 ! Z8    R(8,-3)                -1.8867         frozen, calculate D2E/DX2 analyt!
 ! X35   R(35,-1)                4.3805         frozen, calculate D2E/DX2 analyt!
 ! Y35   R(35,-2)                0.9681         frozen, calculate D2E/DX2 analyt!
 ! Z35   R(35,-3)                3.2965         frozen, calculate D2E/DX2 analyt!
 ! X41   R(41,-1)               -7.4508         frozen, calculate D2E/DX2 analyt!
 ! Y41   R(41,-2)               -0.8594         frozen, calculate D2E/DX2 analyt!
 ! Z41   R(41,-3)               -0.1541         frozen, calculate D2E/DX2 analyt!
 ! X48   R(48,-1)               -4.9318         frozen, calculate D2E/DX2 analyt!
 ! Y48   R(48,-2)               -3.4484         frozen, calculate D2E/DX2 analyt!
 ! Z48   R(48,-3)                1.0109         frozen, calculate D2E/DX2 analyt!
 ! X57   R(57,-1)                8.0876         frozen, calculate D2E/DX2 analyt!
 ! Y57   R(57,-2)                0.8063         frozen, calculate D2E/DX2 analyt!
 ! Z57   R(57,-3)               -0.7291         frozen, calculate D2E/DX2 analyt!
 ! X64   R(64,-1)                2.1197         frozen, calculate D2E/DX2 analyt!
 ! Y64   R(64,-2)               -1.8506         frozen, calculate D2E/DX2 analyt!
 ! Z64   R(64,-3)               -1.2326         frozen, calculate D2E/DX2 analyt!
 ! X70   R(70,-1)                5.7173         frozen, calculate D2E/DX2 analyt!
 ! Y70   R(70,-2)               -2.2574         frozen, calculate D2E/DX2 analyt!
 ! Z70   R(70,-3)               -2.3982         frozen, calculate D2E/DX2 analyt!
 ! R1    R(1,2)                  1.5296         calculate D2E/DX2 analytically  !
 ! R2    R(1,3)                  1.3549         calculate D2E/DX2 analytically  !
 ! R3    R(1,7)                  1.2335         calculate D2E/DX2 analytically  !
 ! R4    R(2,4)                  1.5483         calculate D2E/DX2 analytically  !
 ! R5    R(2,5)                  1.096          calculate D2E/DX2 analytically  !
 ! R6    R(2,6)                  1.0978         calculate D2E/DX2 analytically  !
 ! R7    R(3,8)                  1.4517         calculate D2E/DX2 analytically  !
 ! R8    R(3,9)                  1.0249         calculate D2E/DX2 analytically  !
 ! R9    R(4,10)                 1.1032         calculate D2E/DX2 analytically  !
 ! R10   R(4,11)                 1.4147         calculate D2E/DX2 analytically  !
 ! R11   R(4,12)                 1.0989         calculate D2E/DX2 analytically  !
 ! R12   R(8,13)                 1.0953         calculate D2E/DX2 analytically  !
 ! R13   R(8,14)                 1.0964         calculate D2E/DX2 analytically  !
 ! R14   R(8,15)                 1.0919         calculate D2E/DX2 analytically  !
 ! R15   R(9,19)                 1.8445         calculate D2E/DX2 analytically  !
 ! R16   R(11,16)                1.7961         calculate D2E/DX2 analytically  !
 ! R17   R(11,79)                1.373          calculate D2E/DX2 analytically  !
 ! R18   R(16,17)                1.5138         calculate D2E/DX2 analytically  !
 ! R19   R(16,18)                1.4029         calculate D2E/DX2 analytically  !
 ! R20   R(16,19)                1.2675         calculate D2E/DX2 analytically  !
 ! R21   R(17,20)                1.0909         calculate D2E/DX2 analytically  !
 ! R22   R(17,21)                1.0952         calculate D2E/DX2 analytically  !
 ! R23   R(17,22)                1.0899         calculate D2E/DX2 analytically  !
 ! R24   R(18,23)                1.4218         calculate D2E/DX2 analytically  !
 ! R25   R(19,49)                1.805          calculate D2E/DX2 analytically  !
 ! R26   R(23,24)                1.0927         calculate D2E/DX2 analytically  !
 ! R27   R(23,25)                1.0976         calculate D2E/DX2 analytically  !
 ! R28   R(23,26)                1.0943         calculate D2E/DX2 analytically  !
 ! R29   R(27,28)                1.3327         calculate D2E/DX2 analytically  !
 ! R30   R(27,29)                1.3792         calculate D2E/DX2 analytically  !
 ! R31   R(27,79)                1.1351         calculate D2E/DX2 analytically  !
 ! R32   R(28,30)                1.337          calculate D2E/DX2 analytically  !
 ! R33   R(28,31)                1.0788         calculate D2E/DX2 analytically  !
 ! R34   R(29,32)                1.3758         calculate D2E/DX2 analytically  !
 ! R35   R(29,33)                1.0783         calculate D2E/DX2 analytically  !
 ! R36   R(30,32)                1.3831         calculate D2E/DX2 analytically  !
 ! R37   R(30,78)                1.1056         calculate D2E/DX2 analytically  !
 ! R38   R(32,34)                1.4991         calculate D2E/DX2 analytically  !
 ! R39   R(34,35)                1.5401         calculate D2E/DX2 analytically  !
 ! R40   R(34,36)                1.0959         calculate D2E/DX2 analytically  !
 ! R41   R(34,37)                1.0959         calculate D2E/DX2 analytically  !
 ! R42   R(35,38)                1.0942         calculate D2E/DX2 analytically  !
 ! R43   R(35,39)                1.0956         calculate D2E/DX2 analytically  !
 ! R44   R(35,40)                1.0931         calculate D2E/DX2 analytically  !
 ! R45   R(41,42)                1.5264         calculate D2E/DX2 analytically  !
 ! R46   R(41,43)                1.0918         calculate D2E/DX2 analytically  !
 ! R47   R(41,44)                1.0943         calculate D2E/DX2 analytically  !
 ! R48   R(41,45)                1.0943         calculate D2E/DX2 analytically  !
 ! R49   R(42,46)                1.355          calculate D2E/DX2 analytically  !
 ! R50   R(42,47)                1.2314         calculate D2E/DX2 analytically  !
 ! R51   R(46,48)                1.4464         calculate D2E/DX2 analytically  !
 ! R52   R(46,49)                1.0214         calculate D2E/DX2 analytically  !
 ! R53   R(48,50)                1.0927         calculate D2E/DX2 analytically  !
 ! R54   R(48,51)                1.0994         calculate D2E/DX2 analytically  !
 ! R55   R(48,52)                1.0919         calculate D2E/DX2 analytically  !
 ! R56   R(53,54)                1.5311         calculate D2E/DX2 analytically  !
 ! R57   R(53,55)                1.2706         calculate D2E/DX2 analytically  !
 ! R58   R(53,56)                1.2607         calculate D2E/DX2 analytically  !
 ! R59   R(54,57)                1.5263         calculate D2E/DX2 analytically  !
 ! R60   R(54,58)                1.0984         calculate D2E/DX2 analytically  !
 ! R61   R(54,59)                1.0957         calculate D2E/DX2 analytically  !
 ! R62   R(55,78)                1.4647         calculate D2E/DX2 analytically  !
 ! R63   R(56,66)                1.8827         calculate D2E/DX2 analytically  !
 ! R64   R(56,77)                1.8244         calculate D2E/DX2 analytically  !
 ! R65   R(57,60)                1.0958         calculate D2E/DX2 analytically  !
 ! R66   R(57,61)                1.0944         calculate D2E/DX2 analytically  !
 ! R67   R(57,62)                1.093          calculate D2E/DX2 analytically  !
 ! R68   R(63,64)                1.453          calculate D2E/DX2 analytically  !
 ! R69   R(63,65)                1.3702         calculate D2E/DX2 analytically  !
 ! R70   R(63,66)                1.022          calculate D2E/DX2 analytically  !
 ! R71   R(64,67)                1.0918         calculate D2E/DX2 analytically  !
 ! R72   R(64,68)                1.0985         calculate D2E/DX2 analytically  !
 ! R73   R(64,69)                1.0909         calculate D2E/DX2 analytically  !
 ! R74   R(65,70)                1.5226         calculate D2E/DX2 analytically  !
 ! R75   R(65,71)                1.2293         calculate D2E/DX2 analytically  !
 ! R76   R(70,72)                1.0929         calculate D2E/DX2 analytically  !
 ! R77   R(70,73)                1.0948         calculate D2E/DX2 analytically  !
 ! R78   R(70,74)                1.0904         calculate D2E/DX2 analytically  !
 ! R79   R(75,76)                0.9682         calculate D2E/DX2 analytically  !
 ! R80   R(75,77)                0.9784         calculate D2E/DX2 analytically  !
 ! A1    A(2,1,3)              118.4176         calculate D2E/DX2 analytically  !
 ! A2    A(2,1,7)              119.4126         calculate D2E/DX2 analytically  !
 ! A3    A(3,1,7)              122.1328         calculate D2E/DX2 analytically  !
 ! A4    A(1,2,4)              121.153          calculate D2E/DX2 analytically  !
 ! A5    A(1,2,5)              106.1595         calculate D2E/DX2 analytically  !
 ! A6    A(1,2,6)              105.0453         calculate D2E/DX2 analytically  !
 ! A7    A(4,2,5)              109.4189         calculate D2E/DX2 analytically  !
 ! A8    A(4,2,6)              108.2222         calculate D2E/DX2 analytically  !
 ! A9    A(5,2,6)              105.826          calculate D2E/DX2 analytically  !
 ! A10   A(1,3,8)              119.0435         calculate D2E/DX2 analytically  !
 ! A11   A(1,3,9)              121.8346         calculate D2E/DX2 analytically  !
 ! A12   A(8,3,9)              118.9026         calculate D2E/DX2 analytically  !
 ! A13   A(2,4,10)             107.2098         calculate D2E/DX2 analytically  !
 ! A14   A(2,4,11)             115.4699         calculate D2E/DX2 analytically  !
 ! A15   A(2,4,12)             109.8413         calculate D2E/DX2 analytically  !
 ! A16   A(10,4,11)            108.2414         calculate D2E/DX2 analytically  !
 ! A17   A(10,4,12)            106.6357         calculate D2E/DX2 analytically  !
 ! A18   A(11,4,12)            109.0615         calculate D2E/DX2 analytically  !
 ! A19   A(3,8,13)             111.006          calculate D2E/DX2 analytically  !
 ! A20   A(3,8,14)             111.2361         calculate D2E/DX2 analytically  !
 ! A21   A(3,8,15)             108.7962         calculate D2E/DX2 analytically  !
 ! A22   A(13,8,14)            107.2168         calculate D2E/DX2 analytically  !
 ! A23   A(13,8,15)            109.3999         calculate D2E/DX2 analytically  !
 ! A24   A(14,8,15)            109.15           calculate D2E/DX2 analytically  !
 ! A25   A(4,11,16)            116.0114         calculate D2E/DX2 analytically  !
 ! A26   A(4,11,79)            113.6861         calculate D2E/DX2 analytically  !
 ! A27   A(16,11,79)           118.6321         calculate D2E/DX2 analytically  !
 ! A28   A(11,16,17)            99.1285         calculate D2E/DX2 analytically  !
 ! A29   A(11,16,18)            98.7654         calculate D2E/DX2 analytically  !
 ! A30   A(11,16,19)           107.065          calculate D2E/DX2 analytically  !
 ! A31   A(17,16,18)           108.3979         calculate D2E/DX2 analytically  !
 ! A32   A(17,16,19)           120.776          calculate D2E/DX2 analytically  !
 ! A33   A(18,16,19)           118.3504         calculate D2E/DX2 analytically  !
 ! A34   A(16,17,20)           111.2014         calculate D2E/DX2 analytically  !
 ! A35   A(16,17,21)           108.1621         calculate D2E/DX2 analytically  !
 ! A36   A(16,17,22)           108.8536         calculate D2E/DX2 analytically  !
 ! A37   A(20,17,21)           109.4807         calculate D2E/DX2 analytically  !
 ! A38   A(20,17,22)           109.8248         calculate D2E/DX2 analytically  !
 ! A39   A(21,17,22)           109.2791         calculate D2E/DX2 analytically  !
 ! A40   A(16,18,23)           114.3546         calculate D2E/DX2 analytically  !
 ! A41   A(9,19,16)            105.865          calculate D2E/DX2 analytically  !
 ! A42   A(9,19,49)            129.7282         calculate D2E/DX2 analytically  !
 ! A43   A(16,19,49)            98.9549         calculate D2E/DX2 analytically  !
 ! A44   A(18,23,24)           106.3817         calculate D2E/DX2 analytically  !
 ! A45   A(18,23,25)           110.4902         calculate D2E/DX2 analytically  !
 ! A46   A(18,23,26)           111.8791         calculate D2E/DX2 analytically  !
 ! A47   A(24,23,25)           109.7361         calculate D2E/DX2 analytically  !
 ! A48   A(24,23,26)           109.8683         calculate D2E/DX2 analytically  !
 ! A49   A(25,23,26)           108.4675         calculate D2E/DX2 analytically  !
 ! A50   A(28,27,29)           107.2529         calculate D2E/DX2 analytically  !
 ! A51   A(28,27,79)           123.6677         calculate D2E/DX2 analytically  !
 ! A52   A(29,27,79)           129.0478         calculate D2E/DX2 analytically  !
 ! A53   A(27,28,30)           110.1512         calculate D2E/DX2 analytically  !
 ! A54   A(27,28,31)           124.8032         calculate D2E/DX2 analytically  !
 ! A55   A(30,28,31)           125.0456         calculate D2E/DX2 analytically  !
 ! A56   A(27,29,32)           108.2565         calculate D2E/DX2 analytically  !
 ! A57   A(27,29,33)           121.5171         calculate D2E/DX2 analytically  !
 ! A58   A(32,29,33)           130.2214         calculate D2E/DX2 analytically  !
 ! A59   A(28,30,32)           108.3536         calculate D2E/DX2 analytically  !
 ! A60   A(28,30,78)           125.9129         calculate D2E/DX2 analytically  !
 ! A61   A(32,30,78)           125.7332         calculate D2E/DX2 analytically  !
 ! A62   A(29,32,30)           105.9851         calculate D2E/DX2 analytically  !
 ! A63   A(29,32,34)           131.1662         calculate D2E/DX2 analytically  !
 ! A64   A(30,32,34)           122.8139         calculate D2E/DX2 analytically  !
 ! A65   A(32,34,35)           114.1204         calculate D2E/DX2 analytically  !
 ! A66   A(32,34,36)           107.691          calculate D2E/DX2 analytically  !
 ! A67   A(32,34,37)           109.3994         calculate D2E/DX2 analytically  !
 ! A68   A(35,34,36)           110.0345         calculate D2E/DX2 analytically  !
 ! A69   A(35,34,37)           108.8977         calculate D2E/DX2 analytically  !
 ! A70   A(36,34,37)           106.415          calculate D2E/DX2 analytically  !
 ! A71   A(34,35,38)           110.0278         calculate D2E/DX2 analytically  !
 ! A72   A(34,35,39)           111.2043         calculate D2E/DX2 analytically  !
 ! A73   A(34,35,40)           110.8067         calculate D2E/DX2 analytically  !
 ! A74   A(38,35,39)           108.3718         calculate D2E/DX2 analytically  !
 ! A75   A(38,35,40)           108.3709         calculate D2E/DX2 analytically  !
 ! A76   A(39,35,40)           107.9667         calculate D2E/DX2 analytically  !
 ! A77   A(42,41,43)           112.9597         calculate D2E/DX2 analytically  !
 ! A78   A(42,41,44)           108.9976         calculate D2E/DX2 analytically  !
 ! A79   A(42,41,45)           108.3437         calculate D2E/DX2 analytically  !
 ! A80   A(43,41,44)           109.6759         calculate D2E/DX2 analytically  !
 ! A81   A(43,41,45)           109.5326         calculate D2E/DX2 analytically  !
 ! A82   A(44,41,45)           107.157          calculate D2E/DX2 analytically  !
 ! A83   A(41,42,46)           113.7015         calculate D2E/DX2 analytically  !
 ! A84   A(41,42,47)           121.9384         calculate D2E/DX2 analytically  !
 ! A85   A(46,42,47)           124.3587         calculate D2E/DX2 analytically  !
 ! A86   A(42,46,48)           123.01           calculate D2E/DX2 analytically  !
 ! A87   A(42,46,49)           118.2221         calculate D2E/DX2 analytically  !
 ! A88   A(48,46,49)           118.5181         calculate D2E/DX2 analytically  !
 ! A89   A(46,48,50)           108.9217         calculate D2E/DX2 analytically  !
 ! A90   A(46,48,51)           112.0136         calculate D2E/DX2 analytically  !
 ! A91   A(46,48,52)           109.2594         calculate D2E/DX2 analytically  !
 ! A92   A(50,48,51)           107.7986         calculate D2E/DX2 analytically  !
 ! A93   A(50,48,52)           110.3591         calculate D2E/DX2 analytically  !
 ! A94   A(51,48,52)           108.4795         calculate D2E/DX2 analytically  !
 ! A95   A(54,53,55)           116.0913         calculate D2E/DX2 analytically  !
 ! A96   A(54,53,56)           118.8466         calculate D2E/DX2 analytically  !
 ! A97   A(55,53,56)           125.0368         calculate D2E/DX2 analytically  !
 ! A98   A(53,54,57)           114.244          calculate D2E/DX2 analytically  !
 ! A99   A(53,54,58)           106.5207         calculate D2E/DX2 analytically  !
 ! A100  A(53,54,59)           107.4825         calculate D2E/DX2 analytically  !
 ! A101  A(57,54,58)           110.6901         calculate D2E/DX2 analytically  !
 ! A102  A(57,54,59)           111.833          calculate D2E/DX2 analytically  !
 ! A103  A(58,54,59)           105.5625         calculate D2E/DX2 analytically  !
 ! A104  A(53,55,78)           108.6569         calculate D2E/DX2 analytically  !
 ! A105  A(53,56,66)           142.4272         calculate D2E/DX2 analytically  !
 ! A106  A(53,56,77)           131.8171         calculate D2E/DX2 analytically  !
 ! A107  A(66,56,77)            81.8757         calculate D2E/DX2 analytically  !
 ! A108  A(54,57,60)           111.182          calculate D2E/DX2 analytically  !
 ! A109  A(54,57,61)           110.9514         calculate D2E/DX2 analytically  !
 ! A110  A(54,57,62)           110.8925         calculate D2E/DX2 analytically  !
 ! A111  A(60,57,61)           108.1358         calculate D2E/DX2 analytically  !
 ! A112  A(60,57,62)           108.5219         calculate D2E/DX2 analytically  !
 ! A113  A(61,57,62)           107.008          calculate D2E/DX2 analytically  !
 ! A114  A(64,63,65)           120.6565         calculate D2E/DX2 analytically  !
 ! A115  A(64,63,66)           118.4838         calculate D2E/DX2 analytically  !
 ! A116  A(65,63,66)           118.0924         calculate D2E/DX2 analytically  !
 ! A117  A(63,64,67)           109.8249         calculate D2E/DX2 analytically  !
 ! A118  A(63,64,68)           112.2839         calculate D2E/DX2 analytically  !
 ! A119  A(63,64,69)           108.6793         calculate D2E/DX2 analytically  !
 ! A120  A(67,64,68)           108.4401         calculate D2E/DX2 analytically  !
 ! A121  A(67,64,69)           109.664          calculate D2E/DX2 analytically  !
 ! A122  A(68,64,69)           107.9079         calculate D2E/DX2 analytically  !
 ! A123  A(63,65,70)           114.6096         calculate D2E/DX2 analytically  !
 ! A124  A(63,65,71)           122.9674         calculate D2E/DX2 analytically  !
 ! A125  A(70,65,71)           122.3534         calculate D2E/DX2 analytically  !
 ! A126  A(56,66,63)           161.3356         calculate D2E/DX2 analytically  !
 ! A127  A(65,70,72)           111.6016         calculate D2E/DX2 analytically  !
 ! A128  A(65,70,73)           109.4318         calculate D2E/DX2 analytically  !
 ! A129  A(65,70,74)           108.5996         calculate D2E/DX2 analytically  !
 ! A130  A(72,70,73)           106.3745         calculate D2E/DX2 analytically  !
 ! A131  A(72,70,74)           111.0146         calculate D2E/DX2 analytically  !
 ! A132  A(73,70,74)           109.7905         calculate D2E/DX2 analytically  !
 ! A133  A(76,75,77)           100.9134         calculate D2E/DX2 analytically  !
 ! A134  A(56,77,75)           157.9339         calculate D2E/DX2 analytically  !
 ! A135  L(3,9,19,2,-1)        178.0549         calculate D2E/DX2 analytically  !
 ! A136  L(19,49,46,21,-1)     169.0784         calculate D2E/DX2 analytically  !
 ! A137  L(30,78,55,35,-1)     175.6203         calculate D2E/DX2 analytically  !
 ! A138  L(11,79,27,24,-1)     189.4847         calculate D2E/DX2 analytically  !
 ! A139  L(3,9,19,2,-2)        186.75           calculate D2E/DX2 analytically  !
 ! A140  L(19,49,46,21,-2)     182.4333         calculate D2E/DX2 analytically  !
 ! A141  L(30,78,55,35,-2)     181.5228         calculate D2E/DX2 analytically  !
 ! A142  L(11,79,27,24,-2)     189.4341         calculate D2E/DX2 analytically  !
 ! D1    D(3,1,2,4)              4.7289         calculate D2E/DX2 analytically  !
 ! D2    D(3,1,2,5)            130.1541         calculate D2E/DX2 analytically  !
 ! D3    D(3,1,2,6)           -118.013          calculate D2E/DX2 analytically  !
 ! D4    D(7,1,2,4)           -177.4361         calculate D2E/DX2 analytically  !
 ! D5    D(7,1,2,5)            -52.0109         calculate D2E/DX2 analytically  !
 ! D6    D(7,1,2,6)             59.822          calculate D2E/DX2 analytically  !
 ! D7    D(2,1,3,8)            178.2202         calculate D2E/DX2 analytically  !
 ! D8    D(2,1,3,9)             -7.2215         calculate D2E/DX2 analytically  !
 ! D9    D(7,1,3,8)              0.4474         calculate D2E/DX2 analytically  !
 ! D10   D(7,1,3,9)            175.0056         calculate D2E/DX2 analytically  !
 ! D11   D(1,2,4,10)          -164.1875         calculate D2E/DX2 analytically  !
 ! D12   D(1,2,4,11)            75.1149         calculate D2E/DX2 analytically  !
 ! D13   D(1,2,4,12)           -48.6956         calculate D2E/DX2 analytically  !
 ! D14   D(5,2,4,10)            71.8997         calculate D2E/DX2 analytically  !
 ! D15   D(5,2,4,11)           -48.798          calculate D2E/DX2 analytically  !
 ! D16   D(5,2,4,12)          -172.6084         calculate D2E/DX2 analytically  !
 ! D17   D(6,2,4,10)           -42.9658         calculate D2E/DX2 analytically  !
 ! D18   D(6,2,4,11)          -163.6635         calculate D2E/DX2 analytically  !
 ! D19   D(6,2,4,12)            72.5261         calculate D2E/DX2 analytically  !
 ! D20   D(1,3,8,13)            53.6795         calculate D2E/DX2 analytically  !
 ! D21   D(1,3,8,14)           -65.62           calculate D2E/DX2 analytically  !
 ! D22   D(1,3,8,15)           174.1131         calculate D2E/DX2 analytically  !
 ! D23   D(9,3,8,13)          -121.04           calculate D2E/DX2 analytically  !
 ! D24   D(9,3,8,14)           119.6605         calculate D2E/DX2 analytically  !
 ! D25   D(9,3,8,15)            -0.6064         calculate D2E/DX2 analytically  !
 ! D26   D(1,3,19,16)          -54.1041         calculate D2E/DX2 analytically  !
 ! D27   D(1,3,19,49)         -168.5467         calculate D2E/DX2 analytically  !
 ! D28   D(8,3,19,16)          115.7437         calculate D2E/DX2 analytically  !
 ! D29   D(8,3,19,49)            1.301          calculate D2E/DX2 analytically  !
 ! D30   D(2,4,11,16)         -107.1952         calculate D2E/DX2 analytically  !
 ! D31   D(2,4,11,79)          110.0261         calculate D2E/DX2 analytically  !
 ! D32   D(10,4,11,16)         132.6688         calculate D2E/DX2 analytically  !
 ! D33   D(10,4,11,79)         -10.1099         calculate D2E/DX2 analytically  !
 ! D34   D(12,4,11,16)          17.0233         calculate D2E/DX2 analytically  !
 ! D35   D(12,4,11,79)        -125.7553         calculate D2E/DX2 analytically  !
 ! D36   D(4,11,16,17)         127.3243         calculate D2E/DX2 analytically  !
 ! D37   D(4,11,16,18)        -122.2974         calculate D2E/DX2 analytically  !
 ! D38   D(4,11,16,19)           1.0651         calculate D2E/DX2 analytically  !
 ! D39   D(79,11,16,17)        -91.8081         calculate D2E/DX2 analytically  !
 ! D40   D(79,11,16,18)         18.5702         calculate D2E/DX2 analytically  !
 ! D41   D(79,11,16,19)        141.9326         calculate D2E/DX2 analytically  !
 ! D42   D(4,11,27,28)         -74.1038         calculate D2E/DX2 analytically  !
 ! D43   D(4,11,27,29)          94.979          calculate D2E/DX2 analytically  !
 ! D44   D(16,11,27,28)        143.7929         calculate D2E/DX2 analytically  !
 ! D45   D(16,11,27,29)        -47.1242         calculate D2E/DX2 analytically  !
 ! D46   D(11,16,17,20)         57.2689         calculate D2E/DX2 analytically  !
 ! D47   D(11,16,17,21)        177.5144         calculate D2E/DX2 analytically  !
 ! D48   D(11,16,17,22)        -63.8522         calculate D2E/DX2 analytically  !
 ! D49   D(18,16,17,20)        -45.2114         calculate D2E/DX2 analytically  !
 ! D50   D(18,16,17,21)         75.0341         calculate D2E/DX2 analytically  !
 ! D51   D(18,16,17,22)       -166.3325         calculate D2E/DX2 analytically  !
 ! D52   D(19,16,17,20)        173.4769         calculate D2E/DX2 analytically  !
 ! D53   D(19,16,17,21)        -66.2775         calculate D2E/DX2 analytically  !
 ! D54   D(19,16,17,22)         52.3559         calculate D2E/DX2 analytically  !
 ! D55   D(11,16,18,23)         79.119          calculate D2E/DX2 analytically  !
 ! D56   D(17,16,18,23)       -178.1451         calculate D2E/DX2 analytically  !
 ! D57   D(19,16,18,23)        -35.7527         calculate D2E/DX2 analytically  !
 ! D58   D(11,16,19,9)          55.9584         calculate D2E/DX2 analytically  !
 ! D59   D(11,16,19,49)       -168.1982         calculate D2E/DX2 analytically  !
 ! D60   D(17,16,19,9)         -56.1261         calculate D2E/DX2 analytically  !
 ! D61   D(17,16,19,49)         79.7173         calculate D2E/DX2 analytically  !
 ! D62   D(18,16,19,9)         166.2482         calculate D2E/DX2 analytically  !
 ! D63   D(18,16,19,49)        -57.9085         calculate D2E/DX2 analytically  !
 ! D64   D(16,18,23,24)        176.2028         calculate D2E/DX2 analytically  !
 ! D65   D(16,18,23,25)        -64.7452         calculate D2E/DX2 analytically  !
 ! D66   D(16,18,23,26)         56.217          calculate D2E/DX2 analytically  !
 ! D67   D(9,19,46,42)         -15.9517         calculate D2E/DX2 analytically  !
 ! D68   D(9,19,46,48)         150.8799         calculate D2E/DX2 analytically  !
 ! D69   D(16,19,46,42)       -131.9222         calculate D2E/DX2 analytically  !
 ! D70   D(16,19,46,48)         34.9093         calculate D2E/DX2 analytically  !
 ! D71   D(29,27,28,30)          0.1267         calculate D2E/DX2 analytically  !
 ! D72   D(29,27,28,31)       -179.9462         calculate D2E/DX2 analytically  !
 ! D73   D(79,27,28,30)        178.2466         calculate D2E/DX2 analytically  !
 ! D74   D(79,27,28,31)         -1.8263         calculate D2E/DX2 analytically  !
 ! D75   D(28,27,29,32)         -0.2437         calculate D2E/DX2 analytically  !
 ! D76   D(28,27,29,33)       -179.5081         calculate D2E/DX2 analytically  !
 ! D77   D(79,27,29,32)       -178.2288         calculate D2E/DX2 analytically  !
 ! D78   D(79,27,29,33)          2.5067         calculate D2E/DX2 analytically  !
 ! D79   D(27,28,30,32)          0.0383         calculate D2E/DX2 analytically  !
 ! D80   D(27,28,30,78)       -179.7612         calculate D2E/DX2 analytically  !
 ! D81   D(31,28,30,32)       -179.8886         calculate D2E/DX2 analytically  !
 ! D82   D(31,28,30,78)          0.3118         calculate D2E/DX2 analytically  !
 ! D83   D(27,29,32,30)          0.2625         calculate D2E/DX2 analytically  !
 ! D84   D(27,29,32,34)       -177.5849         calculate D2E/DX2 analytically  !
 ! D85   D(33,29,32,30)        179.4413         calculate D2E/DX2 analytically  !
 ! D86   D(33,29,32,34)          1.5939         calculate D2E/DX2 analytically  !
 ! D87   D(28,30,32,29)         -0.1867         calculate D2E/DX2 analytically  !
 ! D88   D(28,30,32,34)        177.8852         calculate D2E/DX2 analytically  !
 ! D89   D(78,30,32,29)        179.6134         calculate D2E/DX2 analytically  !
 ! D90   D(78,30,32,34)         -2.3147         calculate D2E/DX2 analytically  !
 ! D91   D(28,30,55,53)       -123.0899         calculate D2E/DX2 analytically  !
 ! D92   D(32,30,55,53)         59.5958         calculate D2E/DX2 analytically  !
 ! D93   D(29,32,34,35)       -126.909          calculate D2E/DX2 analytically  !
 ! D94   D(29,32,34,36)         -4.4423         calculate D2E/DX2 analytically  !
 ! D95   D(29,32,34,37)        110.822          calculate D2E/DX2 analytically  !
 ! D96   D(30,32,34,35)         55.5535         calculate D2E/DX2 analytically  !
 ! D97   D(30,32,34,36)        178.0201         calculate D2E/DX2 analytically  !
 ! D98   D(30,32,34,37)        -66.7155         calculate D2E/DX2 analytically  !
 ! D99   D(32,34,35,38)       -176.7799         calculate D2E/DX2 analytically  !
 ! D100  D(32,34,35,39)         63.1374         calculate D2E/DX2 analytically  !
 ! D101  D(32,34,35,40)        -56.9535         calculate D2E/DX2 analytically  !
 ! D102  D(36,34,35,38)         62.0439         calculate D2E/DX2 analytically  !
 ! D103  D(36,34,35,39)        -58.0389         calculate D2E/DX2 analytically  !
 ! D104  D(36,34,35,40)       -178.1297         calculate D2E/DX2 analytically  !
 ! D105  D(37,34,35,38)        -54.2365         calculate D2E/DX2 analytically  !
 ! D106  D(37,34,35,39)       -174.3192         calculate D2E/DX2 analytically  !
 ! D107  D(37,34,35,40)         65.59           calculate D2E/DX2 analytically  !
 ! D108  D(43,41,42,46)          2.1002         calculate D2E/DX2 analytically  !
 ! D109  D(43,41,42,47)       -177.4899         calculate D2E/DX2 analytically  !
 ! D110  D(44,41,42,46)       -120.08           calculate D2E/DX2 analytically  !
 ! D111  D(44,41,42,47)         60.3299         calculate D2E/DX2 analytically  !
 ! D112  D(45,41,42,46)        123.6348         calculate D2E/DX2 analytically  !
 ! D113  D(45,41,42,47)        -55.9552         calculate D2E/DX2 analytically  !
 ! D114  D(41,42,46,48)       -175.9154         calculate D2E/DX2 analytically  !
 ! D115  D(41,42,46,49)         -1.7498         calculate D2E/DX2 analytically  !
 ! D116  D(47,42,46,48)          3.6632         calculate D2E/DX2 analytically  !
 ! D117  D(47,42,46,49)        177.8288         calculate D2E/DX2 analytically  !
 ! D118  D(42,46,48,50)         21.2468         calculate D2E/DX2 analytically  !
 ! D119  D(42,46,48,51)        -97.9059         calculate D2E/DX2 analytically  !
 ! D120  D(42,46,48,52)        141.8676         calculate D2E/DX2 analytically  !
 ! D121  D(49,46,48,50)       -152.9024         calculate D2E/DX2 analytically  !
 ! D122  D(49,46,48,51)         87.9449         calculate D2E/DX2 analytically  !
 ! D123  D(49,46,48,52)        -32.2817         calculate D2E/DX2 analytically  !
 ! D124  D(55,53,54,57)       -167.9024         calculate D2E/DX2 analytically  !
 ! D125  D(55,53,54,58)         69.5672         calculate D2E/DX2 analytically  !
 ! D126  D(55,53,54,59)        -43.1892         calculate D2E/DX2 analytically  !
 ! D127  D(56,53,54,57)         13.8344         calculate D2E/DX2 analytically  !
 ! D128  D(56,53,54,58)       -108.696          calculate D2E/DX2 analytically  !
 ! D129  D(56,53,54,59)        138.5476         calculate D2E/DX2 analytically  !
 ! D130  D(54,53,55,78)       -166.3777         calculate D2E/DX2 analytically  !
 ! D131  D(56,53,55,78)         11.7644         calculate D2E/DX2 analytically  !
 ! D132  D(54,53,56,66)       -152.0517         calculate D2E/DX2 analytically  !
 ! D133  D(54,53,56,77)         59.5314         calculate D2E/DX2 analytically  !
 ! D134  D(55,53,56,66)         29.8534         calculate D2E/DX2 analytically  !
 ! D135  D(55,53,56,77)       -118.5635         calculate D2E/DX2 analytically  !
 ! D136  D(53,54,57,60)       -178.3177         calculate D2E/DX2 analytically  !
 ! D137  D(53,54,57,61)         61.2956         calculate D2E/DX2 analytically  !
 ! D138  D(53,54,57,62)        -57.4819         calculate D2E/DX2 analytically  !
 ! D139  D(58,54,57,60)        -58.0893         calculate D2E/DX2 analytically  !
 ! D140  D(58,54,57,61)       -178.476          calculate D2E/DX2 analytically  !
 ! D141  D(58,54,57,62)         62.7465         calculate D2E/DX2 analytically  !
 ! D142  D(59,54,57,60)         59.3143         calculate D2E/DX2 analytically  !
 ! D143  D(59,54,57,61)        -61.0724         calculate D2E/DX2 analytically  !
 ! D144  D(59,54,57,62)       -179.8499         calculate D2E/DX2 analytically  !
 ! D145  D(53,56,66,63)        163.5541         calculate D2E/DX2 analytically  !
 ! D146  D(77,56,66,63)        -39.6673         calculate D2E/DX2 analytically  !
 ! D147  D(53,56,77,75)        139.934          calculate D2E/DX2 analytically  !
 ! D148  D(66,56,77,75)        -21.2461         calculate D2E/DX2 analytically  !
 ! D149  D(65,63,64,67)        151.3127         calculate D2E/DX2 analytically  !
 ! D150  D(65,63,64,68)        -87.949          calculate D2E/DX2 analytically  !
 ! D151  D(65,63,64,69)         31.3474         calculate D2E/DX2 analytically  !
 ! D152  D(66,63,64,67)        -47.8839         calculate D2E/DX2 analytically  !
 ! D153  D(66,63,64,68)         72.8545         calculate D2E/DX2 analytically  !
 ! D154  D(66,63,64,69)       -167.8491         calculate D2E/DX2 analytically  !
 ! D155  D(64,63,65,70)        175.9941         calculate D2E/DX2 analytically  !
 ! D156  D(64,63,65,71)         -6.9774         calculate D2E/DX2 analytically  !
 ! D157  D(66,63,65,70)         15.1174         calculate D2E/DX2 analytically  !
 ! D158  D(66,63,65,71)       -167.854          calculate D2E/DX2 analytically  !
 ! D159  D(64,63,66,56)        158.2529         calculate D2E/DX2 analytically  !
 ! D160  D(65,63,66,56)        -40.4481         calculate D2E/DX2 analytically  !
 ! D161  D(63,65,70,72)        -43.9855         calculate D2E/DX2 analytically  !
 ! D162  D(63,65,70,73)         73.4798         calculate D2E/DX2 analytically  !
 ! D163  D(63,65,70,74)       -166.6829         calculate D2E/DX2 analytically  !
 ! D164  D(71,65,70,72)        138.9656         calculate D2E/DX2 analytically  !
 ! D165  D(71,65,70,73)       -103.5691         calculate D2E/DX2 analytically  !
 ! D166  D(71,65,70,74)         16.2682         calculate D2E/DX2 analytically  !
 ! D167  D(76,75,77,56)         18.1236         calculate D2E/DX2 analytically  !
 --------------------------------------------------------------------------------
 Trust Radius=3.00D-01 FncErr=1.00D-07 GrdErr=1.00D-06
 Number of steps in this run=    423 maximum allowed number of steps=    474.
 Search for a saddle point of order  1.
 GradGradGradGradGradGradGradGradGradGradGradGradGradGradGradGradGradGrad

 Leave Link  103 at Sat Aug 22 20:30:30 2020, MaxMem=    33554432 cpu:         0.7
 (Enter /global/apps/Gaussian/09.d01/l202.exe)
 Stoichiometry    C21H44N5O9(1-)
 Framework group  C1[X(C21H44N5O9)]
 Deg. of freedom   231
 Full point group                 C1      NOp   1
 Largest Abelian subgroup         C1      NOp   1
 Largest concise Abelian subgroup C1      NOp   1
                         Standard orientation:                         
 ---------------------------------------------------------------------
 Center     Atomic      Atomic             Coordinates (Angstroms)
 Number     Number       Type             X           Y           Z
 ---------------------------------------------------------------------
      1          6           0       -3.781097    3.426313   -1.196682
      2          6           0       -2.563855    3.392208   -0.270997
      3          7           0       -4.735865    2.477603   -1.041592
      4          6           0       -2.363575    2.242788    0.746866
      5          1           0       -1.684174    3.460580   -0.921181
      6          1           0       -2.600766    4.339078    0.283320
      7          8           0       -3.884618    4.331536   -2.028195
      8          6           0       -5.915475    2.520101   -1.886684
      9          1           0       -4.612185    1.685430   -0.403098
     10          1           0       -1.603642    2.578334    1.472759
     11          8           0       -1.937453    1.010784    0.197242
     12          1           0       -3.290741    2.081144    1.314124
     13          1           0       -5.638647    2.552287   -2.945931
     14          1           0       -6.518916    3.412261   -1.681713
     15          1           0       -6.517154    1.629141   -1.695982
     16          6           0       -3.170715   -0.293639    0.137497
     17          6           0       -3.063088   -0.658973   -1.327566
     18          8           0       -2.490811   -1.265168    0.887211
     19          8           0       -4.244378    0.187722    0.608688
     20          1           0       -2.044154   -0.948925   -1.588058
     21          1           0       -3.741925   -1.496235   -1.521369
     22          1           0       -3.368362    0.198156   -1.927650
     23          6           0       -2.547660   -1.066132    2.293902
     24          1           0       -2.042477   -1.922622    2.747017
     25          1           0       -2.028633   -0.139883    2.572175
     26          1           0       -3.578615   -1.008050    2.656203
     27          7           0        0.454218    0.667266    0.804323
     28          6           0        1.386527    1.384938    0.178380
     29          6           0        1.079600   -0.010080    1.830083
     30          7           0        2.577872    1.195279    0.754750
     31          1           0        1.204078    2.024541   -0.670946
     32          6           0        2.417120    0.311439    1.806438
     33          1           0        0.533808   -0.671116    2.484238
     34          6           0        3.561477   -0.164583    2.649698
     35          6           0        4.380478    0.968053    3.296497
     36          1           0        3.152708   -0.822368    3.425154
     37          1           0        4.230304   -0.782777    2.040184
     38          1           0        5.228486    0.549902    3.847286
     39          1           0        3.768911    1.550615    3.994327
     40          1           0        4.766938    1.651064    2.535630
     41          6           0       -7.450773   -0.859432   -0.154079
     42          6           0       -6.917673   -2.248732    0.185863
     43          1           0       -6.724210   -0.066598    0.034408
     44          1           0       -8.358217   -0.673711    0.428541
     45          1           0       -7.737484   -0.849461   -1.210104
     46          7           0       -5.663686   -2.240392    0.699031
     47          8           0       -7.583328   -3.266837   -0.006019
     48          6           0       -4.931845   -3.448393    1.010892
     49          1           0       -5.183934   -1.343062    0.787387
     50          1           0       -5.357226   -4.277606    0.440498
     51          1           0       -4.997103   -3.705927    2.077697
     52          1           0       -3.880218   -3.309323    0.752134
     53          6           0        5.666105    1.397162   -0.112434
     54          6           0        7.133351    1.834443   -0.127581
     55          8           0        4.815797    2.302865    0.154256
     56          8           0        5.390205    0.185768   -0.326451
     57          6           0        8.087560    0.806270   -0.729113
     58          1           0        7.404873    2.053125    0.914050
     59          1           0        7.185229    2.794691   -0.652686
     60          1           0        9.124860    1.157059   -0.687861
     61          1           0        7.837291    0.605208   -1.775409
     62          1           0        8.021465   -0.145618   -0.195956
     63          7           0        3.563238   -1.763854   -1.373501
     64          6           0        2.119667   -1.850590   -1.232647
     65          6           0        4.221648   -2.526326   -2.302233
     66          1           0        4.040760   -0.940719   -1.000717
     67          1           0        1.833180   -1.617213   -0.205256
     68          1           0        1.593260   -1.160107   -1.905534
     69          1           0        1.804825   -2.865363   -1.480048
     70          6           0        5.717281   -2.257385   -2.398202
     71          8           0        3.666100   -3.398588   -2.966900
     72          1           0        5.934853   -1.186436   -2.389731
     73          1           0        6.220468   -2.681475   -1.523299
     74          1           0        6.097436   -2.726459   -3.306182
     75          8           0        5.772874   -2.236742    0.930266
     76          1           0        4.971786   -2.542779    0.480822
     77          1           0        5.872777   -1.343753    0.543174
     78          1           0        3.529523    1.666396    0.446977
     79          1           0       -0.644923    0.679853    0.521357
 ---------------------------------------------------------------------
 Rotational constants (GHZ):      0.1539492      0.0423901      0.0387002
 Leave Link  202 at Sat Aug 22 20:30:30 2020, MaxMem=    33554432 cpu:         1.1
 (Enter /global/apps/Gaussian/09.d01/l301.exe)
 Standard basis: 6-31G(d,p) (6D, 7F)
 Ernie: Thresh=  0.10000D-02 Tol=  0.10000D-05 Strict=F.
 There are   745 symmetry adapted cartesian basis functions of A   symmetry.
 There are   745 symmetry adapted basis functions of A   symmetry.
   745 basis functions,  1288 primitive gaussians,   745 cartesian basis functions
   139 alpha electrons      139 beta electrons
       nuclear repulsion energy      4052.1982117570 Hartrees.
 IExCor=  402 DFT=T Ex+Corr=B3LYP ExCW=0 ScaHFX=  0.200000
 ScaDFX=  0.800000  0.720000  1.000000  0.810000 ScalE2=  1.000000  1.000000
 IRadAn=      0 IRanWt=     -1 IRanGd=            0 ICorTp=0 IEmpDi=131
 NAtoms=   79 NActive=   79 NUniq=   79 SFac= 1.00D+00 NAtFMM=   60 NAOKFM=T Big=T
 Integral buffers will be    131072 words long.
 Raffenetti 2 integral format.
 Two-electron integral symmetry is turned on.
 R6Disp:  Grimme-D3 Dispersion energy=       -0.0967984281 Hartrees.
 Nuclear repulsion after empirical dispersion term =     4052.1014133289 Hartrees.
 Leave Link  301 at Sat Aug 22 20:30:30 2020, MaxMem=    33554432 cpu:         1.7
 (Enter /global/apps/Gaussian/09.d01/l302.exe)
 NPDir=0 NMtPBC=     1 NCelOv=     1 NCel=       1 NClECP=     1 NCelD=      1
         NCelK=      1 NCelE2=     1 NClLst=     1 CellRange=     0.0.
 One-electron integrals computed using PRISM.
 PrsmSu:  requested number of processors reduced to:   7 ShMem   1 Linda.
 NBasis=   745 RedAO= T EigKep=  1.12D-03  NBF=   745
 NBsUse=   745 1.00D-06 EigRej= -1.00D+00 NBFU=   745
 Precomputing XC quadrature grid using
 IXCGrd= 4 IRadAn=           0 IRanWt=          -1 IRanGd=           0 AccXCQ= 0.00D+00.
 Generated NRdTot=       0 NPtTot=           0 NUsed=           0 NTot=          32
 NSgBfM=   695   695   695   695   695 MxSgAt=    79 MxSgA2=    79.
 Leave Link  302 at Sat Aug 22 20:30:32 2020, MaxMem=    33554432 cpu:        28.4
 (Enter /global/apps/Gaussian/09.d01/l303.exe)
 DipDrv:  MaxL=1.
 Leave Link  303 at Sat Aug 22 20:30:32 2020, MaxMem=    33554432 cpu:         3.9
 (Enter /global/apps/Gaussian/09.d01/l401.exe)
 ExpMin= 1.61D-01 ExpMax= 5.48D+03 ExpMxC= 8.25D+02 IAcc=1 IRadAn=         1 AccDes= 0.00D+00
 Harris functional with IExCor=  402 and IRadAn=       1 diagonalized for initial guess.
 HarFok:  IExCor=  402 AccDes= 0.00D+00 IRadAn=         1 IDoV= 1 UseB2=F ITyADJ=14
 ICtDFT=  3500011 ScaDFX=  1.000000  1.000000  1.000000  1.000000
 CalDSu:  requested number of processors reduced to:  17 ShMem   1 Linda.
 FoFCou: FMM=F IPFlag=           0 FMFlag=      100000 FMFlg1=        2001
         NFxFlg=           0 DoJE=T BraDBF=F KetDBF=T FulRan=T
         wScrn=  0.000000 ICntrl=     500 IOpCl=  0 I1Cent=   200000004 NGrid=           0
         NMat0=    1 NMatS0=      1 NMatT0=    0 NMatD0=    1 NMtDS0=    0 NMtDT0=    0
 Petite list used in FoFCou.
 Harris En= -1778.12221484822    
 JPrj=0 DoOrth=F DoCkMO=F.
 Leave Link  401 at Sat Aug 22 20:30:34 2020, MaxMem=    33554432 cpu:        33.2
 (Enter /global/apps/Gaussian/09.d01/l502.exe)
 Closed shell SCF:
 Using DIIS extrapolation, IDIIS=  1040.
 Integral symmetry usage will be decided dynamically.
 IVT=     1704170 IEndB=     1704170 NGot=    33554432 MDV=    32422673
 LenX=    32422673 LenY=    31866903
 Requested convergence on RMS density matrix=1.00D-08 within 128 cycles.
 Requested convergence on MAX density matrix=1.00D-06.
 Requested convergence on             energy=1.00D-06.
 No special actions if energy rises.
 Fock matrices will be formed incrementally for  20 cycles.
 Integral accuracy reduced to 1.0D-05 until final iterations.

 Cycle   1  Pass 0  IDiag  1:
 FoFJK:  IHMeth= 1 ICntrl=       0 DoSepK=F KAlg= 0 I1Cent=   0 FoldK=F
 IRaf= 660000000 NMat=   1 IRICut=       1 DoRegI=T DoRafI=F ISym2E= 0.
 FoFCou: FMM=T IPFlag=           0 FMFlag=      100000 FMFlg1=        2001
         NFxFlg=           0 DoJE=F BraDBF=F KetDBF=F FulRan=T
         wScrn=  0.000000 ICntrl=       0 IOpCl=  0 I1Cent=           0 NGrid=           0
         NMat0=    1 NMatS0=      1 NMatT0=    0 NMatD0=    1 NMtDS0=    0 NMtDT0=    0
 Symmetry not used in FoFCou.
 FMM levels:  10  Number of levels for PrismC:   9
 CalDSu:  requested number of processors reduced to:  16 ShMem   1 Linda.
 E= -1776.71684605550    
 DIIS: error= 2.63D-02 at cycle   1 NSaved=   1.
 NSaved= 1 IEnMin= 1 EnMin= -1776.71684605550     IErMin= 1 ErrMin= 2.63D-02
 ErrMax= 2.63D-02  0.00D+00 EMaxC= 1.00D-01 BMatC= 1.29D+00 BMatP= 1.29D+00
 IDIUse=3 WtCom= 7.37D-01 WtEn= 2.63D-01
 Coeff-Com:  0.100D+01
 Coeff-En:   0.100D+01
 Coeff:      0.100D+01
 Gap=     0.290 Goal=   None    Shift=    0.000
 GapD=    0.290 DampG=1.000 DampE=0.500 DampFc=0.5000 IDamp=-1.
 Damping current iteration by 5.00D-01
 RMSDP=3.43D-03 MaxDP=2.06D-01              OVMax= 2.75D-01

 Cycle   2  Pass 0  IDiag  1:
 RMSU=  1.71D-03    CP:  9.87D-01
 CalDSu:  requested number of processors reduced to:  17 ShMem   1 Linda.
 E= -1777.13572073920     Delta-E=       -0.418874683704 Rises=F Damp=T
 DIIS: error= 9.24D-03 at cycle   2 NSaved=   2.
 NSaved= 2 IEnMin= 2 EnMin= -1777.13572073920     IErMin= 2 ErrMin= 9.24D-03
 ErrMax= 9.24D-03  0.00D+00 EMaxC= 1.00D-01 BMatC= 1.27D-01 BMatP= 1.29D+00
 IDIUse=3 WtCom= 9.08D-01 WtEn= 9.24D-02
 Coeff-Com:  0.164D+00 0.836D+00
 Coeff-En:   0.247D+00 0.753D+00
 Coeff:      0.172D+00 0.828D+00
 Gap=     0.258 Goal=   None    Shift=    0.000
 RMSDP=9.22D-04 MaxDP=8.40D-02 DE=-4.19D-01 OVMax= 1.98D-01

 Cycle   3  Pass 0  IDiag  1:
 RMSU=  8.17D-04    CP:  9.79D-01  7.55D-01
 CalDSu:  requested number of processors reduced to:  16 ShMem   1 Linda.
 E= -1777.74998739302     Delta-E=       -0.614266653820 Rises=F Damp=F
 DIIS: error= 1.36D-02 at cycle   3 NSaved=   3.
 NSaved= 3 IEnMin= 3 EnMin= -1777.74998739302     IErMin= 2 ErrMin= 9.24D-03
 ErrMax= 1.36D-02  0.00D+00 EMaxC= 1.00D-01 BMatC= 1.31D-01 BMatP= 1.27D-01
 IDIUse=3 WtCom= 8.64D-01 WtEn= 1.36D-01
 Coeff-Com:  0.547D-01 0.502D+00 0.443D+00
 Coeff-En:   0.000D+00 0.000D+00 0.100D+01
 Coeff:      0.473D-01 0.434D+00 0.519D+00
 Gap=     0.241 Goal=   None    Shift=    0.000
 RMSDP=6.41D-04 MaxDP=5.61D-02 DE=-6.14D-01 OVMax= 1.04D-01

 Cycle   4  Pass 0  IDiag  1:
 RMSU=  3.45D-04    CP:  9.84D-01  8.53D-01  3.75D-01
 CalDSu:  requested number of processors reduced to:  16 ShMem   1 Linda.
 E= -1777.83325774113     Delta-E=       -0.083270348110 Rises=F Damp=F
 DIIS: error= 6.86D-03 at cycle   4 NSaved=   4.
 NSaved= 4 IEnMin= 4 EnMin= -1777.83325774113     IErMin= 4 ErrMin= 6.86D-03
 ErrMax= 6.86D-03  0.00D+00 EMaxC= 1.00D-01 BMatC= 3.38D-02 BMatP= 1.27D-01
 IDIUse=3 WtCom= 9.31D-01 WtEn= 6.86D-02
 Coeff-Com:  0.934D-02 0.923D-01 0.337D+00 0.561D+00
 Coeff-En:   0.000D+00 0.000D+00 0.239D+00 0.761D+00
 Coeff:      0.870D-02 0.860D-01 0.330D+00 0.575D+00
 Gap=     0.227 Goal=   None    Shift=    0.000
 RMSDP=2.62D-04 MaxDP=2.34D-02 DE=-8.33D-02 OVMax= 4.08D-02

 Cycle   5  Pass 0  IDiag  1:
 RMSU=  1.02D-04    CP:  9.83D-01  8.07D-01  5.81D-01  5.55D-01
 CalDSu:  requested number of processors reduced to:  16 ShMem   1 Linda.
 E= -1777.85850497095     Delta-E=       -0.025247229811 Rises=F Damp=F
 DIIS: error= 1.49D-03 at cycle   5 NSaved=   5.
 NSaved= 5 IEnMin= 5 EnMin= -1777.85850497095     IErMin= 5 ErrMin= 1.49D-03
 ErrMax= 1.49D-03  0.00D+00 EMaxC= 1.00D-01 BMatC= 2.39D-03 BMatP= 3.38D-02
 IDIUse=3 WtCom= 9.85D-01 WtEn= 1.49D-02
 Coeff-Com:  0.190D-02 0.123D-01 0.159D+00 0.349D+00 0.478D+00
 Coeff-En:   0.000D+00 0.000D+00 0.000D+00 0.000D+00 0.100D+01
 Coeff:      0.187D-02 0.122D-01 0.157D+00 0.344D+00 0.486D+00
 Gap=     0.225 Goal=   None    Shift=    0.000
 RMSDP=6.81D-05 MaxDP=4.59D-03 DE=-2.52D-02 OVMax= 1.00D-02

 Cycle   6  Pass 0  IDiag  1:
 RMSU=  2.66D-05    CP:  9.83D-01  8.14D-01  5.68D-01  6.35D-01  4.71D-01
 CalDSu:  requested number of processors reduced to:  16 ShMem   1 Linda.
 E= -1777.86038947564     Delta-E=       -0.001884504693 Rises=F Damp=F
 DIIS: error= 2.43D-04 at cycle   6 NSaved=   6.
 NSaved= 6 IEnMin= 6 EnMin= -1777.86038947564     IErMin= 6 ErrMin= 2.43D-04
 ErrMax= 2.43D-04  0.00D+00 EMaxC= 1.00D-01 BMatC= 1.15D-04 BMatP= 2.39D-03
 IDIUse=3 WtCom= 9.98D-01 WtEn= 2.43D-03
 Coeff-Com:  0.262D-03-0.143D-02 0.486D-01 0.117D+00 0.248D+00 0.588D+00
 Coeff-En:   0.000D+00 0.000D+00 0.000D+00 0.000D+00 0.000D+00 0.100D+01
 Coeff:      0.262D-03-0.142D-02 0.484D-01 0.117D+00 0.247D+00 0.589D+00
 Gap=     0.225 Goal=   None    Shift=    0.000
 RMSDP=1.57D-05 MaxDP=1.63D-03 DE=-1.88D-03 OVMax= 1.83D-03

 Cycle   7  Pass 0  IDiag  1:
 RMSU=  9.45D-06    CP:  9.83D-01  8.14D-01  5.70D-01  6.30D-01  5.34D-01
                    CP:  6.02D-01
 CalDSu:  requested number of processors reduced to:  16 ShMem   1 Linda.
 E= -1777.86046696397     Delta-E=       -0.000077488330 Rises=F Damp=F
 DIIS: error= 1.33D-04 at cycle   7 NSaved=   7.
 NSaved= 7 IEnMin= 7 EnMin= -1777.86046696397     IErMin= 7 ErrMin= 1.33D-04
 ErrMax= 1.33D-04  0.00D+00 EMaxC= 1.00D-01 BMatC= 1.95D-05 BMatP= 1.15D-04
 IDIUse=3 WtCom= 9.99D-01 WtEn= 1.33D-03
 Coeff-Com:  0.257D-04-0.184D-02 0.168D-01 0.422D-01 0.116D+00 0.370D+00
 Coeff-Com:  0.456D+00
 Coeff-En:   0.000D+00 0.000D+00 0.000D+00 0.000D+00 0.000D+00 0.716D-01
 Coeff-En:   0.928D+00
 Coeff:      0.257D-04-0.184D-02 0.168D-01 0.421D-01 0.116D+00 0.370D+00
 Coeff:      0.457D+00
 Gap=     0.225 Goal=   None    Shift=    0.000
 RMSDP=5.86D-06 MaxDP=5.64D-04 DE=-7.75D-05 OVMax= 9.71D-04

 Initial convergence to 1.0D-05 achieved.  Increase integral accuracy.
 Cycle   8  Pass 1  IDiag  1:
 CalDSu:  requested number of processors reduced to:  16 ShMem   1 Linda.
 E= -1777.86050564455     Delta-E=       -0.000038680579 Rises=F Damp=F
 DIIS: error= 9.41D-05 at cycle   1 NSaved=   1.
 NSaved= 1 IEnMin= 1 EnMin= -1777.86050564455     IErMin= 1 ErrMin= 9.41D-05
 ErrMax= 9.41D-05  0.00D+00 EMaxC= 1.00D-01 BMatC= 4.39D-06 BMatP= 4.39D-06
 IDIUse=1 WtCom= 1.00D+00 WtEn= 0.00D+00
 Coeff-Com:  0.100D+01
 Coeff:      0.100D+01
 Gap=     0.225 Goal=   None    Shift=    0.000
 RMSDP=5.86D-06 MaxDP=5.64D-04 DE=-3.87D-05 OVMax= 8.83D-04

 Cycle   9  Pass 1  IDiag  1:
 RMSU=  2.22D-05    CP:  1.00D+00
 CalDSu:  requested number of processors reduced to:  16 ShMem   1 Linda.
 E= -1777.86050578556     Delta-E=       -0.000000141008 Rises=F Damp=F
 DIIS: error= 1.10D-04 at cycle   2 NSaved=   2.
 NSaved= 2 IEnMin= 2 EnMin= -1777.86050578556     IErMin= 1 ErrMin= 9.41D-05
 ErrMax= 1.10D-04  0.00D+00 EMaxC= 1.00D-01 BMatC= 5.19D-06 BMatP= 4.39D-06
 IDIUse=3 WtCom= 4.88D-01 WtEn= 5.12D-01
 Coeff-Com:  0.528D+00 0.472D+00
 Coeff-En:   0.488D+00 0.512D+00
 Coeff:      0.507D+00 0.493D+00
 Gap=     0.225 Goal=   None    Shift=    0.000
 RMSDP=4.24D-06 MaxDP=5.41D-04 DE=-1.41D-07 OVMax= 1.01D-03

 Cycle  10  Pass 1  IDiag  1:
 RMSU=  4.19D-06    CP:  1.00D+00  9.70D-01
 CalDSu:  requested number of processors reduced to:  16 ShMem   1 Linda.
 E= -1777.86050835179     Delta-E=       -0.000002566234 Rises=F Damp=F
 DIIS: error= 7.22D-05 at cycle   3 NSaved=   3.
 NSaved= 3 IEnMin= 3 EnMin= -1777.86050835179     IErMin= 3 ErrMin= 7.22D-05
 ErrMax= 7.22D-05  0.00D+00 EMaxC= 1.00D-01 BMatC= 1.93D-06 BMatP= 4.39D-06
 IDIUse=1 WtCom= 1.00D+00 WtEn= 0.00D+00
 Coeff-Com:  0.216D-01 0.375D+00 0.604D+00
 Coeff:      0.216D-01 0.375D+00 0.604D+00
 Gap=     0.225 Goal=   None    Shift=    0.000
 RMSDP=1.73D-06 MaxDP=2.20D-04 DE=-2.57D-06 OVMax= 4.39D-04

 Cycle  11  Pass 1  IDiag  1:
 RMSU=  6.20D-07    CP:  1.00D+00  9.92D-01  6.30D-01
 CalDSu:  requested number of processors reduced to:  16 ShMem   1 Linda.
 E= -1777.86050977466     Delta-E=       -0.000001422867 Rises=F Damp=F
 DIIS: error= 7.64D-06 at cycle   4 NSaved=   4.
 NSaved= 4 IEnMin= 4 EnMin= -1777.86050977466     IErMin= 4 ErrMin= 7.64D-06
 ErrMax= 7.64D-06  0.00D+00 EMaxC= 1.00D-01 BMatC= 6.86D-08 BMatP= 1.93D-06
 IDIUse=1 WtCom= 1.00D+00 WtEn= 0.00D+00
 Coeff-Com: -0.384D-02 0.207D+00 0.357D+00 0.439D+00
 Coeff:     -0.384D-02 0.207D+00 0.357D+00 0.439D+00
 Gap=     0.225 Goal=   None    Shift=    0.000
 RMSDP=3.59D-07 MaxDP=3.55D-05 DE=-1.42D-06 OVMax= 4.83D-05

 Cycle  12  Pass 1  IDiag  1:
 RMSU=  1.39D-07    CP:  1.00D+00  9.93D-01  6.39D-01  4.71D-01
 CalDSu:  requested number of processors reduced to:  16 ShMem   1 Linda.
 E= -1777.86050983265     Delta-E=       -0.000000057989 Rises=F Damp=F
 DIIS: error= 1.42D-06 at cycle   5 NSaved=   5.
 NSaved= 5 IEnMin= 5 EnMin= -1777.86050983265     IErMin= 5 ErrMin= 1.42D-06
 ErrMax= 1.42D-06  0.00D+00 EMaxC= 1.00D-01 BMatC= 2.78D-09 BMatP= 6.86D-08
 IDIUse=1 WtCom= 1.00D+00 WtEn= 0.00D+00
 Coeff-Com: -0.309D-02 0.113D+00 0.196D+00 0.267D+00 0.427D+00
 Coeff:     -0.309D-02 0.113D+00 0.196D+00 0.267D+00 0.427D+00
 Gap=     0.225 Goal=   None    Shift=    0.000
 RMSDP=7.23D-08 MaxDP=6.29D-06 DE=-5.80D-08 OVMax= 9.53D-06

 Cycle  13  Pass 1  IDiag  1:
 RMSU=  5.34D-08    CP:  1.00D+00  9.93D-01  6.38D-01  4.91D-01  6.60D-01
 CalDSu:  requested number of processors reduced to:  16 ShMem   1 Linda.
 E= -1777.86050983481     Delta-E=       -0.000000002169 Rises=F Damp=F
 DIIS: error= 4.10D-07 at cycle   6 NSaved=   6.
 NSaved= 6 IEnMin= 6 EnMin= -1777.86050983481     IErMin= 6 ErrMin= 4.10D-07
 ErrMax= 4.10D-07  0.00D+00 EMaxC= 1.00D-01 BMatC= 1.62D-10 BMatP= 2.78D-09
 IDIUse=1 WtCom= 1.00D+00 WtEn= 0.00D+00
 Coeff-Com: -0.122D-02 0.365D-01 0.637D-01 0.937D-01 0.230D+00 0.577D+00
 Coeff:     -0.122D-02 0.365D-01 0.637D-01 0.937D-01 0.230D+00 0.577D+00
 Gap=     0.225 Goal=   None    Shift=    0.000
 RMSDP=2.12D-08 MaxDP=1.78D-06 DE=-2.17D-09 OVMax= 2.56D-06

 Cycle  14  Pass 1  IDiag  1:
 RMSU=  1.59D-08    CP:  1.00D+00  9.93D-01  6.38D-01  4.91D-01  7.10D-01
                    CP:  7.74D-01
 CalDSu:  requested number of processors reduced to:  16 ShMem   1 Linda.
 E= -1777.86050983478     Delta-E=        0.000000000036 Rises=F Damp=F
 DIIS: error= 1.65D-07 at cycle   7 NSaved=   7.
 NSaved= 7 IEnMin= 6 EnMin= -1777.86050983481     IErMin= 7 ErrMin= 1.65D-07
 ErrMax= 1.65D-07  0.00D+00 EMaxC= 1.00D-01 BMatC= 2.58D-11 BMatP= 1.62D-10
 IDIUse=1 WtCom= 1.00D+00 WtEn= 0.00D+00
 Coeff-Com: -0.341D-03 0.821D-02 0.144D-01 0.236D-01 0.805D-01 0.336D+00
 Coeff-Com:  0.538D+00
 Coeff:     -0.341D-03 0.821D-02 0.144D-01 0.236D-01 0.805D-01 0.336D+00
 Coeff:      0.538D+00
 Gap=     0.225 Goal=   None    Shift=    0.000
 RMSDP=7.69D-09 MaxDP=5.51D-07 DE= 3.64D-11 OVMax= 9.04D-07

 SCF Done:  E(RB3LYP) =  -1777.86050983     A.U. after   14 cycles
            NFock= 14  Conv=0.77D-08     -V/T= 2.0092
 KE= 1.761607582781D+03 PE=-1.227909745769D+04 EE= 4.687527951741D+03
 Leave Link  502 at Sat Aug 22 20:31:42 2020, MaxMem=    33554432 cpu:      1266.9
 (Enter /global/apps/Gaussian/09.d01/l801.exe)
 DoSCS=F DFT=T ScalE2(SS,OS)=  1.000000  1.000000
 Range of M.O.s used for correlation:     1   745
 NBasis=   745 NAE=   139 NBE=   139 NFC=     0 NFV=     0
 NROrb=    745 NOA=   139 NOB=   139 NVA=   606 NVB=   606
 Leave Link  801 at Sat Aug 22 20:31:42 2020, MaxMem=    33554432 cpu:         0.9
 (Enter /global/apps/Gaussian/09.d01/l1101.exe)
 Using compressed storage, NAtomX=    79.
 Will process     33 centers per pass.
 PrsmSu:  requested number of processors reduced to:   5 ShMem   1 Linda.
 PrsmSu:  requested number of processors reduced to:   1 ShMem   1 Linda.
 PrsmSu:  requested number of processors reduced to:   1 ShMem   1 Linda.
 PrsmSu:  requested number of processors reduced to:   1 ShMem   1 Linda.
 R6Disp: Adding Grimme-D3 dispersion energy 1st derivatives to the gradient.
 Leave Link 1101 at Sat Aug 22 20:31:50 2020, MaxMem=    33554432 cpu:       109.3
 (Enter /global/apps/Gaussian/09.d01/l1102.exe)
 Symmetrizing basis deriv contribution to polar:
 IMax=3 JMax=2 DiffMx= 0.00D+00
 Leave Link 1102 at Sat Aug 22 20:31:50 2020, MaxMem=    33554432 cpu:         3.5
 (Enter /global/apps/Gaussian/09.d01/l1110.exe)
 Forming Gx(P) for the SCF density, NAtomX=    79.
 Integral derivatives from FoFJK, PRISM(SPDF).
 Do as many integral derivatives as possible in FoFJK.
 G2DrvN: MDV=      33553696.
 G2DrvN: will do     1 centers at a time, making   80 passes.
 Estimated number of processors is:    7
 G2DrvN:  IPasSy=1 do centers    0 through    0.
 Calling FoFCou, ICntrl=  3107 FMM=T I1Cent=   0 AccDes= 0.00D+00.
 FoFJK:  IHMeth= 1 ICntrl=    3107 DoSepK=F KAlg= 0 I1Cent=   0 FoldK=F
 IRaf=         0 NMat=   1 IRICut=       1 DoRegI=T DoRafI=F ISym2E= 0.
 FoFCou: FMM=T IPFlag=           0 FMFlag=      100000 FMFlg1=        2001
         NFxFlg=           0 DoJE=F BraDBF=F KetDBF=F FulRan=T
         wScrn=  0.000000 ICntrl=    3107 IOpCl=  0 I1Cent=           0 NGrid=           0
         NMat0=    1 NMatS0=      1 NMatT0=    0 NMatD0=    1 NMtDS0=    0 NMtDT0=    0
 Symmetry not used in FoFCou.
 FMM levels:  10  Number of levels for PrismC:   9
 CoulSu:  requested number of processors reduced to:   9 ShMem   1 Linda.
 CalDSu:  requested number of processors reduced to:  10 ShMem   1 Linda.
 G2DrvN:  IPasSy=1 do centers    1 through    1.
 Calling FoFCou, ICntrl=  3107 FMM=T I1Cent=   0 AccDes= 0.00D+00.
 CoulSu:  requested number of processors reduced to:   7 ShMem   1 Linda.
 CalDSu:  requested number of processors reduced to:  10 ShMem   1 Linda.
 G2DrvN:  IPasSy=1 do centers    2 through    2.
 Calling FoFCou, ICntrl=  3107 FMM=T I1Cent=   0 AccDes= 0.00D+00.
 CoulSu:  requested number of processors reduced to:   7 ShMem   1 Linda.
 CalDSu:  requested number of processors reduced to:  10 ShMem   1 Linda.
 G2DrvN:  IPasSy=1 do centers    3 through    3.
 Calling FoFCou, ICntrl=  3107 FMM=T I1Cent=   0 AccDes= 0.00D+00.
 CoulSu:  requested number of processors reduced to:   7 ShMem   1 Linda.
 CalDSu:  requested number of processors reduced to:  10 ShMem   1 Linda.
 G2DrvN:  IPasSy=1 do centers    4 through    4.
 Calling FoFCou, ICntrl=  3107 FMM=T I1Cent=   0 AccDes= 0.00D+00.
 CoulSu:  requested number of processors reduced to:   7 ShMem   1 Linda.
 CalDSu:  requested number of processors reduced to:  10 ShMem   1 Linda.
 G2DrvN:  IPasSy=1 do centers    5 through    5.
 Calling FoFCou, ICntrl=  3107 FMM=T I1Cent=   0 AccDes= 0.00D+00.
 CoulSu:  requested number of processors reduced to:   7 ShMem   1 Linda.
 CalDSu:  requested number of processors reduced to:  10 ShMem   1 Linda.
 G2DrvN:  IPasSy=1 do centers    6 through    6.
 Calling FoFCou, ICntrl=  3107 FMM=T I1Cent=   0 AccDes= 0.00D+00.
 CoulSu:  requested number of processors reduced to:   7 ShMem   1 Linda.
 CalDSu:  requested number of processors reduced to:  10 ShMem   1 Linda.
 G2DrvN:  IPasSy=1 do centers    7 through    7.
 Calling FoFCou, ICntrl=  3107 FMM=T I1Cent=   0 AccDes= 0.00D+00.
 CoulSu:  requested number of processors reduced to:   7 ShMem   1 Linda.
 CalDSu:  requested number of processors reduced to:  10 ShMem   1 Linda.
 G2DrvN:  IPasSy=1 do centers    8 through    8.
 Calling FoFCou, ICntrl=  3107 FMM=T I1Cent=   0 AccDes= 0.00D+00.
 CoulSu:  requested number of processors reduced to:   7 ShMem   1 Linda.
 CalDSu:  requested number of processors reduced to:  10 ShMem   1 Linda.
 G2DrvN:  IPasSy=1 do centers    9 through    9.
 Calling FoFCou, ICntrl=  3107 FMM=T I1Cent=   0 AccDes= 0.00D+00.
 CoulSu:  requested number of processors reduced to:   7 ShMem   1 Linda.
 CalDSu:  requested number of processors reduced to:  10 ShMem   1 Linda.
 G2DrvN:  IPasSy=1 do centers   10 through   10.
 Calling FoFCou, ICntrl=  3107 FMM=T I1Cent=   0 AccDes= 0.00D+00.
 CoulSu:  requested number of processors reduced to:   7 ShMem   1 Linda.
 CalDSu:  requested number of processors reduced to:  10 ShMem   1 Linda.
 G2DrvN:  IPasSy=1 do centers   11 through   11.
[...]
 Alpha  occ. eigenvalues --   -0.81942  -0.81698  -0.81261  -0.81160  -0.71723
 Alpha  occ. eigenvalues --   -0.68344  -0.68154  -0.66547  -0.65993  -0.65977
 Alpha  occ. eigenvalues --   -0.64945  -0.60948  -0.60631  -0.59546  -0.58559
 Alpha  occ. eigenvalues --   -0.56649  -0.56094  -0.54721  -0.53493  -0.52261
 Alpha  occ. eigenvalues --   -0.48674  -0.48435  -0.47668  -0.47463  -0.47265
 Alpha  occ. eigenvalues --   -0.44029  -0.42848  -0.41789  -0.41291  -0.40527
 Alpha  occ. eigenvalues --   -0.40456  -0.40232  -0.39532  -0.38590  -0.38281
 Alpha  occ. eigenvalues --   -0.37917  -0.37480  -0.37203  -0.36945  -0.36888
 Alpha  occ. eigenvalues --   -0.36769  -0.36500  -0.36307  -0.36007  -0.35974
 Alpha  occ. eigenvalues --   -0.35552  -0.35467  -0.35121  -0.33634  -0.33336
 Alpha  occ. eigenvalues --   -0.33170  -0.33131  -0.32498  -0.32308  -0.32027
 Alpha  occ. eigenvalues --   -0.31502  -0.30824  -0.30745  -0.30386  -0.30184
 Alpha  occ. eigenvalues --   -0.30090  -0.29905  -0.29839  -0.29742  -0.29324
 Alpha  occ. eigenvalues --   -0.29105  -0.28591  -0.28341  -0.28049  -0.27956
 Alpha  occ. eigenvalues --   -0.27248  -0.26479  -0.26025  -0.25772  -0.25577
 Alpha  occ. eigenvalues --   -0.25549  -0.25150  -0.24477  -0.22576  -0.20286
 Alpha  occ. eigenvalues --   -0.19115  -0.18532  -0.17857  -0.17776  -0.17293
 Alpha  occ. eigenvalues --   -0.16801  -0.16424  -0.16214  -0.15618  -0.15507
 Alpha  occ. eigenvalues --   -0.15415  -0.15171  -0.14797  -0.14535
 Alpha virt. eigenvalues --    0.08899   0.11599   0.12142   0.12311   0.12374
 Alpha virt. eigenvalues --    0.12917   0.14285   0.15526   0.16316   0.16980
 Alpha virt. eigenvalues --    0.17596   0.18512   0.18860   0.19134   0.19461
 Alpha virt. eigenvalues --    0.20135   0.20584   0.20917   0.21567   0.22002
 Alpha virt. eigenvalues --    0.22478   0.22597   0.23115   0.23127   0.23520
 Alpha virt. eigenvalues --    0.23703   0.23853   0.24185   0.24527   0.24701
 Alpha virt. eigenvalues --    0.25060   0.25239   0.25298   0.25503   0.25709
 Alpha virt. eigenvalues --    0.26174   0.26228   0.26343   0.26443   0.26995
 Alpha virt. eigenvalues --    0.27080   0.27168   0.27358   0.27749   0.27963
 Alpha virt. eigenvalues --    0.28275   0.28471   0.28901   0.29222   0.29969
 Alpha virt. eigenvalues --    0.30570   0.31434   0.31600   0.32092   0.32404
 Alpha virt. eigenvalues --    0.32696   0.32844   0.33574   0.34022   0.34981
 Alpha virt. eigenvalues --    0.35186   0.35485   0.35972   0.36283   0.36735
 Alpha virt. eigenvalues --    0.37164   0.37642   0.40014   0.41225   0.41988
 Alpha virt. eigenvalues --    0.42880   0.44017   0.45694   0.46197   0.46569
 Alpha virt. eigenvalues --    0.48422   0.50403   0.51546   0.52328   0.53697
 Alpha virt. eigenvalues --    0.55149   0.55916   0.56282   0.57974   0.58403
 Alpha virt. eigenvalues --    0.58660   0.59189   0.59860   0.60404   0.60602
 Alpha virt. eigenvalues --    0.61058   0.61633   0.61874   0.62235   0.62442
 Alpha virt. eigenvalues --    0.62759   0.63126   0.63306   0.63648   0.64347
 Alpha virt. eigenvalues --    0.64657   0.64849   0.65531   0.65783   0.66225
 Alpha virt. eigenvalues --    0.66552   0.66702   0.67444   0.67767   0.68145
 Alpha virt. eigenvalues --    0.68442   0.68995   0.69411   0.69468   0.70199
 Alpha virt. eigenvalues --    0.70795   0.71523   0.71984   0.72190   0.72666
 Alpha virt. eigenvalues --    0.73157   0.73814   0.74510   0.75104   0.75385
 Alpha virt. eigenvalues --    0.75690   0.76306   0.77009   0.77607   0.78499
 Alpha virt. eigenvalues --    0.78791   0.79473   0.80122   0.80788   0.81483
 Alpha virt. eigenvalues --    0.82121   0.82719   0.82916   0.83333   0.84180
 Alpha virt. eigenvalues --    0.84839   0.85024   0.85366   0.86230   0.86375
 Alpha virt. eigenvalues --    0.86677   0.86947   0.87419   0.87656   0.88406
 Alpha virt. eigenvalues --    0.88775   0.89034   0.89338   0.89471   0.90646
 Alpha virt. eigenvalues --    0.91486   0.91849   0.92049   0.92478   0.92605
 Alpha virt. eigenvalues --    0.93060   0.93424   0.93538   0.94302   0.94482
 Alpha virt. eigenvalues --    0.94711   0.95362   0.95652   0.95915   0.96077
 Alpha virt. eigenvalues --    0.96560   0.96849   0.97081   0.97336   0.97455
 Alpha virt. eigenvalues --    0.97936   0.98311   0.98789   0.99149   0.99751
 Alpha virt. eigenvalues --    0.99967   1.00355   1.00548   1.01019   1.01086
 Alpha virt. eigenvalues --    1.01328   1.01889   1.02079   1.02176   1.02506
 Alpha virt. eigenvalues --    1.03501   1.03559   1.04143   1.05271   1.05724
 Alpha virt. eigenvalues --    1.05898   1.06835   1.07565   1.08102   1.09106
 Alpha virt. eigenvalues --    1.09166   1.10727   1.12053   1.12395   1.12603
 Alpha virt. eigenvalues --    1.13319   1.13442   1.14124   1.14760   1.14920
 Alpha virt. eigenvalues --    1.17014   1.17224   1.18244   1.18992   1.19672
 Alpha virt. eigenvalues --    1.20434   1.21389   1.22072   1.22500   1.22878
 Alpha virt. eigenvalues --    1.23697   1.24735   1.25179   1.27008   1.27703
 Alpha virt. eigenvalues --    1.28358   1.29783   1.30305   1.30551   1.31024
 Alpha virt. eigenvalues --    1.31974   1.32242   1.33211   1.33666   1.35279
 Alpha virt. eigenvalues --    1.35804   1.37052   1.37851   1.38152   1.38498
 Alpha virt. eigenvalues --    1.38870   1.39198   1.39738   1.40269   1.40972
 Alpha virt. eigenvalues --    1.41116   1.41721   1.43158   1.44347   1.44523
 Alpha virt. eigenvalues --    1.45974   1.46115   1.46713   1.47388   1.48198
 Alpha virt. eigenvalues --    1.48459   1.48684   1.49024   1.49737   1.51063
 Alpha virt. eigenvalues --    1.52291   1.53094   1.53743   1.54073   1.54630
 Alpha virt. eigenvalues --    1.54966   1.57376   1.59721   1.60270   1.61392
 Alpha virt. eigenvalues --    1.62042   1.62972   1.63137   1.63927   1.65097
 Alpha virt. eigenvalues --    1.65668   1.66525   1.67150   1.67740   1.68660
 Alpha virt. eigenvalues --    1.70046   1.70293   1.72192   1.72849   1.73530
 Alpha virt. eigenvalues --    1.74482   1.75095   1.75331   1.75800   1.75911
 Alpha virt. eigenvalues --    1.77794   1.78443   1.78922   1.79708   1.81161
 Alpha virt. eigenvalues --    1.81365   1.81508   1.81714   1.83030   1.83397
 Alpha virt. eigenvalues --    1.84946   1.85470   1.86897   1.87987   1.88344
 Alpha virt. eigenvalues --    1.88824   1.89251   1.89709   1.89866   1.90132
 Alpha virt. eigenvalues --    1.90540   1.91256   1.91369   1.91414   1.92613
 Alpha virt. eigenvalues --    1.93760   1.94169   1.94767   1.94995   1.95236
 Alpha virt. eigenvalues --    1.95913   1.96266   1.96909   1.97583   1.97611
 Alpha virt. eigenvalues --    1.98229   1.98383   1.98836   1.98993   1.99228
 Alpha virt. eigenvalues --    1.99511   2.01051   2.01651   2.02260   2.02806
 Alpha virt. eigenvalues --    2.03450   2.04320   2.04607   2.05430   2.05938
 Alpha virt. eigenvalues --    2.06867   2.07594   2.07989   2.10053   2.10512
 Alpha virt. eigenvalues --    2.10942   2.11166   2.11234   2.11344   2.11684
 Alpha virt. eigenvalues --    2.12104   2.12486   2.12616   2.12947   2.13016
 Alpha virt. eigenvalues --    2.13078   2.13448   2.14158   2.14640   2.14765
 Alpha virt. eigenvalues --    2.14922   2.15429   2.15622   2.15808   2.16328
 Alpha virt. eigenvalues --    2.16505   2.17012   2.17624   2.17794   2.18375
 Alpha virt. eigenvalues --    2.18501   2.18957   2.19146   2.19989   2.20105
 Alpha virt. eigenvalues --    2.20421   2.20942   2.21092   2.21733   2.22234
 Alpha virt. eigenvalues --    2.22569   2.22688   2.24218   2.24806   2.25468
 Alpha virt. eigenvalues --    2.26414   2.26731   2.26993   2.27690   2.28398
 Alpha virt. eigenvalues --    2.28764   2.29696   2.30067   2.31682   2.32228
 Alpha virt. eigenvalues --    2.32538   2.32653   2.34235   2.34862   2.35317
 Alpha virt. eigenvalues --    2.36859   2.36967   2.37840   2.38340   2.38748
 Alpha virt. eigenvalues --    2.39171   2.39768   2.40424   2.40916   2.41849
 Alpha virt. eigenvalues --    2.42726   2.43561   2.44588   2.44992   2.46264
 Alpha virt. eigenvalues --    2.46948   2.47486   2.48354   2.48969   2.49771
 Alpha virt. eigenvalues --    2.49928   2.50689   2.51131   2.51718   2.52405
 Alpha virt. eigenvalues --    2.53162   2.53574   2.54347   2.55471   2.56124
 Alpha virt. eigenvalues --    2.56667   2.56959   2.57820   2.58796   2.59315
 Alpha virt. eigenvalues --    2.60271   2.60937   2.62395   2.63014   2.63984
 Alpha virt. eigenvalues --    2.64035   2.64382   2.65022   2.66522   2.66782
 Alpha virt. eigenvalues --    2.67512   2.68210   2.68542   2.68760   2.69959
 Alpha virt. eigenvalues --    2.70489   2.71138   2.71298   2.72418   2.73420
 Alpha virt. eigenvalues --    2.74066   2.74466   2.74518   2.74728   2.75072
 Alpha virt. eigenvalues --    2.75676   2.75904   2.77034   2.77558   2.77865
 Alpha virt. eigenvalues --    2.77960   2.78218   2.78500   2.79103   2.79366
 Alpha virt. eigenvalues --    2.79855   2.79876   2.80259   2.81065   2.81950
 Alpha virt. eigenvalues --    2.82769   2.83418   2.84684   2.85993   2.87922
 Alpha virt. eigenvalues --    2.88892   2.90191   2.90879   2.91496   2.91594
 Alpha virt. eigenvalues --    2.92178   2.92418   2.92631   2.92966   2.93454
 Alpha virt. eigenvalues --    2.93866   2.94254   2.94962   2.95576   2.95875
 Alpha virt. eigenvalues --    2.96271   2.97056   2.97200   2.97430   2.97695
 Alpha virt. eigenvalues --    2.97837   2.98274   2.98726   2.99301   2.99630
 Alpha virt. eigenvalues --    3.01247   3.01837   3.02516   3.04339   3.04906
 Alpha virt. eigenvalues --    3.06617   3.07905   3.08928   3.09428   3.10413
 Alpha virt. eigenvalues --    3.14759   3.15567   3.16425   3.17877   3.18580
 Alpha virt. eigenvalues --    3.18867   3.21888   3.22897   3.23717   3.23780
 Alpha virt. eigenvalues --    3.24207   3.28467   3.28816   3.29206   3.30393
 Alpha virt. eigenvalues --    3.30469   3.30882   3.31835   3.32088   3.33476
 Alpha virt. eigenvalues --    3.33640   3.38330   3.39168   3.39430   3.42455
 Alpha virt. eigenvalues --    3.45226   3.47248   3.47958   3.48783   3.49541
 Alpha virt. eigenvalues --    3.50033   3.50303   3.51381   3.51524   3.51970
 Alpha virt. eigenvalues --    3.52246   3.52692   3.53206   3.53535   3.54145
 Alpha virt. eigenvalues --    3.54365   3.54725   3.55162   3.55592   3.56286
 Alpha virt. eigenvalues --    3.56556   3.57338   3.61976   3.62263   3.64297
 Alpha virt. eigenvalues --    3.67788   3.70614   3.71750   3.73635   3.77457
 Alpha virt. eigenvalues --    3.83968   3.95903   4.12975   4.15779   4.16056
 Alpha virt. eigenvalues --    4.18101   4.20778   4.21262   4.23835   4.25611
 Alpha virt. eigenvalues --    4.26413   4.29534   4.31038   4.31233   4.36385
 Alpha virt. eigenvalues --    4.37774   4.38826   4.42014   4.43791   4.45747
 Alpha virt. eigenvalues --    4.49977   4.54109   4.55254   4.56731   4.58496
 Alpha virt. eigenvalues --    4.59328   4.63228   4.66367   4.69195   4.72345
 Alpha virt. eigenvalues --    4.73319   4.74929   4.75855   4.76920   4.83740
 Alpha virt. eigenvalues --    4.85244
          Condensed to atoms (all electrons):
 Mulliken charges:
               1
     1  C    0.567406
     2  C   -0.249256
     3  N   -0.554671
     4  C    0.040444
     5  H    0.115334
     6  H    0.104810
     7  O   -0.556809
     8  C   -0.158934
     9  H    0.317143
    10  H    0.062845
    11  O   -0.641881
    12  H    0.106347
    13  H    0.117906
    14  H    0.111299
    15  H    0.099355
    16  C    0.709179
    17  C   -0.328555
    18  O   -0.491247
    19  O   -0.624843
    20  H    0.112264
    21  H    0.108914
    22  H    0.117664
    23  C   -0.076801
    24  H    0.097353
    25  H    0.098037
    26  H    0.115699
    27  N   -0.543447
    28  C    0.286483
    29  C    0.013230
    30  N   -0.533805
    31  H    0.141463
    32  C    0.269524
    33  H    0.102506
    34  C   -0.244066
    35  C   -0.333085
    36  H    0.089351
    37  H    0.144139
    38  H    0.097155
    39  H    0.090585
    40  H    0.135637
    41  C   -0.404862
    42  C    0.549122
    43  H    0.128694
    44  H    0.117619
    45  H    0.122378
    46  N   -0.541476
    47  O   -0.545685
    48  C   -0.174769
    49  H    0.315120
    50  H    0.124946
    51  H    0.096747
    52  H    0.121742
    53  C    0.590659
    54  C   -0.250014
    55  O   -0.609411
    56  O   -0.584492
    57  C   -0.307288
    58  H    0.107441
    59  H    0.103958
    60  H    0.072354
    61  H    0.104532
    62  H    0.121696
    63  N   -0.545199
    64  C   -0.173636
    65  C    0.530278
    66  H    0.300640
    67  H    0.113723
    68  H    0.102872
    69  H    0.132382
    70  C   -0.400446
    71  O   -0.532200
    72  H    0.130702
    73  H    0.136001
    74  H    0.104520
    75  O   -0.661992
    76  H    0.299619
    77  H    0.346221
    78  H    0.376805
    79  H    0.446025
 Sum of Mulliken charges =  -1.00000
 Mulliken charges with hydrogens summed into heavy atoms:
               1
     1  C    0.567406
     2  C   -0.029112
     3  N   -0.237528
     4  C    0.209636
     7  O   -0.556809
     8  C    0.169627
    11  O   -0.641881
    16  C    0.709179
    17  C    0.010288
    18  O   -0.491247
    19  O   -0.624843
    23  C    0.234288
    27  N   -0.097422
    28  C    0.427946
    29  C    0.115737
    30  N   -0.157000
    32  C    0.269524
    34  C   -0.010577
    35  C   -0.009709
    41  C   -0.036170
    42  C    0.549122
    46  N   -0.226356
    47  O   -0.545685
    48  C    0.168666
    53  C    0.590659
    54  C   -0.038615
    55  O   -0.609411
    56  O   -0.584492
    57  C   -0.008706
    63  N   -0.244559
    64  C    0.175341
    65  C    0.530278
    70  C   -0.029223
    71  O   -0.532200
    75  O   -0.016152
 Electronic spatial extent (au):  <R**2>=          28339.2106
 Charge=             -1.0000 electrons
 Dipole moment (field-independent basis, Debye):
    X=              1.1916    Y=              3.3436    Z=              5.4434  Tot=              6.4984
 Quadrupole moment (field-independent basis, Debye-Ang):
   XX=           -371.9691   YY=           -284.5422   ZZ=           -230.1073
   XY=              3.0371   XZ=             -3.2907   YZ=             -0.9699
 Traceless Quadrupole moment (field-independent basis, Debye-Ang):
   XX=            -76.4296   YY=             10.9973   ZZ=             65.4322
   XY=              3.0371   XZ=             -3.2907   YZ=             -0.9699
 Octapole moment (field-independent basis, Debye-Ang**2):
  XXX=            250.7523  YYY=            -22.8234  ZZZ=             54.2712  XYY=            112.6300
  XXY=            301.9038  XXZ=             15.1094  XZZ=            -39.2641  YZZ=             11.3460
  YYZ=            115.8183  XYZ=            -85.7086
 Hexadecapole moment (field-independent basis, Debye-Ang**3):
 XXXX=         -34652.6672 YYYY=          -6817.4398 ZZZZ=          -3248.8843 XXXY=          -1634.5263
 XXXZ=           -145.5563 YYYX=            214.7321 YYYZ=            101.8181 ZZZX=             35.6853
 ZZZY=           -129.7950 XXYY=          -7700.3914 XXZZ=          -5398.3849 YYZZ=          -1818.3535
 XXYZ=            133.3179 YYXZ=           -161.5310 ZZXY=            327.6399
 N-N= 4.054452241727D+03 E-N=-1.228385670307D+04  KE= 1.761662073956D+03
 No NMR shielding tensors so no spin-rotation constants.
 Leave Link  601 at Sat Aug 22 22:09:37 2020, MaxMem=    33554432 cpu:        20.5
 (Enter /global/apps/Gaussian/09.d01/l9999.exe)
 1\1\GINC-C25-1\FTS\RB3LYP\6-31G(d,p)\C21H44N5O9(1-)\BENTESIRINBARGE\22
 -Aug-2020\0\\#p opt=(calcfc,ts,modredundant,noeigentest) rb3lyp/6-31g(
 d,p) geom=connectivity empiricaldispersion=gd3\\TITLE\\-1,1\C,-3.78662
 42565,3.4228209673,-1.1893058821\C,-2.563855,3.392208,-0.270997\N,-4.7
 240225085,2.4530664649,-1.0589720405\C,-2.3519811426,2.2643746359,0.73
 47014316\H,-1.6883499379,3.4556660066,-0.9270024999\H,-2.6012430945,4.
 3504357452,0.2644698247\O,-3.9122435521,4.3487459415,-1.9940926416\C,-
 5.915475,2.520101,-1.886684\H,-4.5842234307,1.6466945667,-0.443895308\
 H,-1.5971597109,2.5902545714,1.4696606641\O,-1.9016596772,1.0822063893
 ,0.1093077916\H,-3.2748799636,2.056554964,1.2924511155\H,-5.6559428222
 ,2.5516161863,-2.95046308\H,-6.4965245332,3.4232058388,-1.667714671\H,
 -6.5310641729,1.6398285867,-1.6905459026\C,-3.064948508,-0.3028559675,
 0.1648433034\C,-2.9324213693,-0.7392119525,-1.278006522\O,-2.345112864
 ,-1.1900848522,0.972296713\O,-4.1566463634,0.161957663,0.6038820601\H,
 -1.8997680004,-0.9932308485,-1.5215156553\H,-3.5706650567,-1.615774614
 5,-1.4303170154\H,-3.2753026608,0.07200562,-1.9203409589\C,-2.46130469
 76,-0.9459536133,2.3696311351\H,-1.9339883671,-1.7626779304,2.86801172
 97\H,-1.9922495203,0.0097763591,2.6367587729\H,-3.506499166,-0.9233300
 528,2.6916078539\N,0.4365446505,0.7137354766,0.8276420179\C,1.37932458
 04,1.4150029345,0.2000736631\C,1.0624138775,0.0262972962,1.8471422869\
 N,2.5741646617,1.2060340124,0.7654351838\H,1.2051475102,2.0598635946,-
 0.6474449999\C,2.4061786425,0.3250524794,1.8172496343\H,0.5147955302,-
 0.627968165,2.5066715582\C,3.5503293288,-0.1607048838,2.6555841539\C,4
 .380478,0.968053,3.296497\H,3.1405730058,-0.8141234921,3.4343060671\H,
 4.2133456838,-0.7839898366,2.0447571755\H,5.2290153413,0.5458209421,3.
 8435496975\H,3.7759950105,1.5555497247,3.9964895386\H,4.7667664693,1.6
 475280613,2.5323984284\C,-7.450773,-0.859432,-0.154079\C,-6.9126862221
 ,-2.2418727191,0.2038562369\H,-6.7346560301,-0.0583953271,0.0418725806
 \H,-8.3693401636,-0.6780094359,0.4116018299\H,-7.7182039704,-0.8559343
 822,-1.2152930673\N,-5.6463844828,-2.2330307044,0.6842905029\O,-7.5834
 144708,-3.2628706897,0.0504082194\C,-4.931845,-3.448393,1.010892\H,-5.
 1524559283,-1.3422384469,0.7560176563\H,-5.2388043112,-4.2483619378,0.
 3316381301\H,-5.1381325519,-3.78719857,2.0357879603\H,-3.8602596918,-3
 .2623035641,0.9110428244\C,5.6691431501,1.4038547726,-0.1083930393\C,7
 .1404602517,1.8293251208,-0.1090116892\O,4.8246875355,2.3133008032,0.1
 567211193\O,5.387806083,0.1941394123,-0.3310973581\C,8.08756,0.80627,-
 0.729113\H,7.4101980432,2.021841732,0.9383424818\H,7.2026713758,2.8003
 726235,-0.6125542148\H,9.1281597482,1.1460920003,-0.6770408323\H,7.839
 2836393,0.6301489816,-1.7804813543\H,8.0105238538,-0.1563022252,-0.217
 0688776\N,3.5633181026,-1.7598707882,-1.3730510722\C,2.119667,-1.85059
 ,-1.232647\C,4.2213127357,-2.5246044209,-2.2995230514\H,4.0388965707,-
 0.933896616,-1.0031220712\H,1.8292944354,-1.5641558822,-0.2199590594\H
 ,1.590219964,-1.2011243517,-1.9431692506\H,1.8114406492,-2.8791046684,
 -1.4267019483\C,5.717281,-2.257385,-2.398202\O,3.6639078707,-3.3985141
 473,-2.9610475124\H,5.935525701,-1.1864962146,-2.3935708617\H,6.220727
 7019,-2.6780365459,-1.5217861629\H,6.0961758115,-2.7301747164,-3.30480
 46885\O,5.7746591192,-2.2234202672,0.9294607905\H,4.9729926345,-2.5325
 379666,0.4832320269\H,5.8675988878,-1.3289149431,0.5430168714\H,3.5198
 161701,1.6662928365,0.4558817622\H,-0.7159087762,0.7894420188,0.509679
 7926\\Version=EM64L-G09RevD.01\State=1-A\HF=-1777.862112\RMSD=4.203e-0
 9\RMSF=4.215e-04\Dipole=0.4711597,1.3053004,2.1472831\Quadrupole=-56.8
 229085,8.1801126,48.6427959,2.3191914,-2.3719559,-0.9055121\PG=C01 [X(
 C21H44N5O9)]\\@


      HUMANKIND PERIODICALLY GOES THROUGH A SPEEDUP OF ITS AFFAIRS, 
      THEREBY EXPERIENCING THE RACE BETWEEN THE RENEWABLE VITALITY
      OF THE LIVING, AND THE BECKONING VITIATION OF DECADENCE.
      IN THIS PERIODIC RACE, ANY PAUSE BECOMES A LUXURY.
      ONLY THEN CAN ONE REFLECT THAT ALL IS PERMITTED;
      ALL IS POSSIBLE.

                              -- THE APOCRYPHA OF MUAD'DIB
                                 CHILDREN OF DUNE, BY FRANK HERBERT
 Job cpu time:       0 days 22 hours 56 minutes 31.4 seconds.
 File lengths (MBytes):  RWF=   4200 Int=      0 D2E=      0 Chk=     44 Scr=      1
 Normal termination of Gaussian 09 at Sat Aug 22 22:09:38 2020.
