
16
 Entering Gaussian System, Link 0=g16
 Initial command:
 /cluster/software/Gaussian/g16_B.01/l1.exe "/cluster/work/users/bentesirinbarge/4084868/Gau-100744.inp" -scrdir="/cluster/work/users/bentesirinbarge/4084868/"
 Entering Link 1 = /cluster/software/Gaussian/g16_B.01/l1.exe PID=    100748.
  
 Copyright (c) 1988-2017, Gaussian, Inc.  All Rights Reserved.
  
 This is part of the Gaussian(R) 16 program.  It is based on
 the Gaussian(R) 09 system (copyright 2009, Gaussian, Inc.),
 the Gaussian(R) 03 system (copyright 2003, Gaussian, Inc.),
 the Gaussian(R) 98 system (copyright 1998, Gaussian, Inc.),
 the Gaussian(R) 94 system (copyright 1995, Gaussian, Inc.),
 the Gaussian 92(TM) system (copyright 1992, Gaussian, Inc.),
 the Gaussian 90(TM) system (copyright 1990, Gaussian, Inc.),
 the Gaussian 88(TM) system (copyright 1988, Gaussian, Inc.),
 the Gaussian 86(TM) system (copyright 1986, Carnegie Mellon
 University), and the Gaussian 82(TM) system (copyright 1983,
 Carnegie Mellon University). Gaussian is a federally registered
 trademark of Gaussian, Inc.
  
 This software contains proprietary and confidential information,
 including trade secrets, belonging to Gaussian, Inc.
  
 This software is provided under written license and may be
 used, copied, transmitted, or stored only in accord with that
 written license.
  
 The following legend is applicable only to US Government
 contracts under FAR:
  
                    RESTRICTED RIGHTS LEGEND
  
 Use, reproduction and disclosure by the US Government is
 subject to restrictions as set forth in subparagraphs (a)
 and (c) of the Commercial Computer Software - Restricted
 Rights clause in FAR 52.227-19.
  
 Gaussian, Inc.
 340 Quinnipiac St., Bldg. 40, Wallingford CT 06492
  
  
 ---------------------------------------------------------------
 Warning -- This program may not be used in any manner that
 competes with the business of Gaussian, Inc. or will provide
 assistance to any competitor of Gaussian, Inc.  The licensee
 of this program is prohibited from giving any competitor of
 Gaussian, Inc. access to this program.  By using this program,
 the user acknowledges that Gaussian, Inc. is engaged in the
 business of creating and licensing software in the field of
 computational chemistry and represents and warrants to the
 licensee that it is not a competitor of Gaussian, Inc. and that
 it will not use this program in any manner prohibited above.
 ---------------------------------------------------------------
  

 Cite this work as:
 Gaussian 16, Revision B.01,
 M. J. Frisch, G. W. Trucks, H. B. Schlegel, G. E. Scuseria, 
 M. A. Robb, J. R. Cheeseman, G. Scalmani, V. Barone, 
 G. A. Petersson, H. Nakatsuji, X. Li, M. Caricato, A. V. Marenich, 
 J. Bloino, B. G. Janesko, R. Gomperts, B. Mennucci, H. P. Hratchian, 
 J. V. Ortiz, A. F. Izmaylov, J. L. Sonnenberg, D. Williams-Young, 
 F. Ding, F. Lipparini, F. Egidi, J. Goings, B. Peng, A. Petrone, 
 T. Henderson, D. Ranasinghe, V. G. Zakrzewski, J. Gao, N. Rega, 
 G. Zheng, W. Liang, M. Hada, M. Ehara, K. Toyota, R. Fukuda, 
 J. Hasegawa, M. Ishida, T. Nakajima, Y. Honda, O. Kitao, H. Nakai, 
 T. Vreven, K. Throssell, J. A. Montgomery, Jr., J. E. Peralta, 
 F. Ogliaro, M. J. Bearpark, J. J. Heyd, E. N. Brothers, K. N. Kudin, 
 V. N. Staroverov, T. A. Keith, R. Kobayashi, J. Normand, 
 K. Raghavachari, A. P. Rendell, J. C. Burant, S. S. Iyengar, 
 J. Tomasi, M. Cossi, J. M. Millam, M. Klene, C. Adamo, R. Cammi, 
 J. W. Ochterski, R. L. Martin, K. Morokuma, O. Farkas, 
 J. B. Foresman, and D. J. Fox, Gaussian, Inc., Wallingford CT, 2016.
 
 ******************************************
 Gaussian 16:  ES64L-G16RevB.01 20-Dec-2017
                 9-Feb-2022 
 ******************************************
 %LindaWorkers=cib76-7:2,cib78-1:2,cib78-4:2,cib78-12:2
 %NProcShared=16
 Will use up to   16 processors via shared memory.
 %chk=HS_2_63.chk
 %mem=3GB
 SetLPE:    new flags="-opt 'Tsnet.Node.lindarsharg: ssh' -mp 2 -nodelist 'cib76-7 cib78-1 cib78-4 cib78-12' -opt 'Tsnet.cib76-7.speedfactor: 2' -opt 'Tsnet.cib78-1.speedfactor: 2' -opt 'Tsnet.cib78-4.speedfactor: 2' -opt 'Tsnet.cib78-12.speedfactor: 2' -env GAUSS_MDEF=402653184 -env GAUSS_EXEDIR="/cluster/software/Gaussian/g16_B.01""
 Will use up to    8 processors via Linda.
 ----------------------------------------------------------------------
 # Opt=(modredundant, MaxCycle=500) Freq B3LYP/6-31+G(d,p) empiricaldis
 persion=gd3 NoSymm
 ----------------------------------------------------------------------
 1/6=500,18=120,19=15,26=3,38=1/1,3;
 2/9=110,12=2,15=1,17=6,18=5,40=1/2;
 3/5=1,6=6,7=111,11=2,25=1,30=1,71=1,74=-5,124=31/1,2,3;
 4//1;
 5/5=2,38=5/2;
 6/7=2,8=2,9=2,10=2,28=1/1;
 7/30=1/1,2,3,16;
 1/6=500,18=20,19=15,26=3/3(2);
 2/9=110,15=1/2;
 99//99;
 2/9=110,15=1/2;
 3/5=1,6=6,7=111,11=2,25=1,30=1,71=1,74=-5,124=31/1,2,3;
 4/5=5,16=3,69=1/1;
 5/5=2,38=5/2;
 7/30=1/1,2,3,16;
 1/6=500,18=20,19=15,26=3/3(-5);
 2/9=110,15=1/2;
 6/7=2,8=2,9=2,10=2,19=2,28=1/1;
 99/9=1/99;
 -----------
 HS_2_63 Opt
 -----------
 Symbolic Z-matrix:
 Charge = -1 Multiplicity = 1
 C                     16.52     2.666     26.038 
 N                     14.188    3.333     26.19 
 O                     13.098   -0.164     26.787 
 C                     15.723    1.392     26.307 
 O                     11.897    1.629     26.555 
 C                     14.266    1.801     26.022 
 C                     15.618    3.803     26.515 
 C                     13.002    1.05      26.515 
 H                     16.737    2.78      24.973 
 H                     17.48     2.665     26.559 
 H                     16.033    0.55      25.686 
 H                     15.87     1.061     27.333 
 H                     14.1559   1.78058   24.87459 
 H                     13.854    3.73      25.313 
 H                     15.654    3.938     27.597 
 H                     15.781    4.759     26.015 
 H                     13.502    3.663     26.869 
 C                     13.671   -1.517     23.51 
 C                     14.18    -0.531     22.44 
 S                     13.3921   1.10542   22.61241 
 H                     14.029   -2.523     23.29 
 H                     12.581   -1.525     23.514 
 H                     14.041   -1.194     24.484 
 H                     15.258   -0.395     22.522 
 H                     13.982   -0.933     21.45 
 C                     11.786    2.923     29.785 
 C                     13.242    2.941     30.301 
 S                     14.315    1.847     29.335 
 H                     11.327    1.957     29.997 
 H                     11.195    3.695     30.277 
 H                     11.818    3.092     28.71 
 H                     13.653    3.95      30.241 
 H                     13.286    2.644     31.348 
 H                     14.409    2.651     28.273 
 
 Add virtual bond connecting atoms H34        and H15        Dist= 3.62D+00.
 Add virtual bond connecting atoms H34        and H17        Dist= 3.69D+00.
 Add virtual bond connecting atoms S20        and H13        Dist= 4.69D+00.
 The following ModRedundant input section has been read:
 X      26 F                                                                   
 X      18 F                                                                   
 B      13      20 F                                                           
 

 GradGradGradGradGradGradGradGradGradGradGradGradGradGradGradGradGradGrad
 Berny optimization.
 Initialization pass.
                           ----------------------------
                           !    Initial Parameters    !
                           ! (Angstroms and Degrees)  !
 --------------------------                            --------------------------
 ! Name  Definition              Value          Derivative Info.                !
 --------------------------------------------------------------------------------
 ! X18   R(18,-1)               13.671          Frozen                          !
 ! Y18   R(18,-2)               -1.517          Frozen                          !
 ! Z18   R(18,-3)               23.51           Frozen                          !
 ! X26   R(26,-1)               11.786          Frozen                          !
 ! Y26   R(26,-2)                2.923          Frozen                          !
 ! Z26   R(26,-3)               29.785          Frozen                          !
 ! R1    R(1,4)                  1.5266         estimate D2E/DX2                !
 ! R2    R(1,7)                  1.5277         estimate D2E/DX2                !
 ! R3    R(1,9)                  1.0928         estimate D2E/DX2                !
 ! R4    R(1,10)                 1.0923         estimate D2E/DX2                !
 ! R5    R(2,6)                  1.5432         estimate D2E/DX2                !
 ! R6    R(2,7)                  1.5399         estimate D2E/DX2                !
 ! R7    R(2,14)                 1.019          estimate D2E/DX2                !
 ! R8    R(2,17)                 1.0201         estimate D2E/DX2                !
 ! R9    R(3,8)                  1.2478         estimate D2E/DX2                !
 ! R10   R(4,6)                  1.5399         estimate D2E/DX2                !
 ! R11   R(4,11)                 1.0912         estimate D2E/DX2                !
 ! R12   R(4,12)                 1.088          estimate D2E/DX2                !
 ! R13   R(5,8)                  1.2481         estimate D2E/DX2                !
 ! R14   R(6,8)                  1.5507         estimate D2E/DX2                !
 ! R15   R(6,13)                 1.1529         estimate D2E/DX2                !
 ! R16   R(7,15)                 1.091          estimate D2E/DX2                !
 ! R17   R(7,16)                 1.0911         estimate D2E/DX2                !
 ! R18   R(13,20)                2.4813         Frozen                          !
 ! R19   R(15,34)                1.914          estimate D2E/DX2                !
 ! R20   R(17,34)                1.954          estimate D2E/DX2                !
 ! R21   R(18,19)                1.5415         estimate D2E/DX2                !
 ! R22   R(18,21)                1.0902         estimate D2E/DX2                !
 ! R23   R(18,22)                1.09           estimate D2E/DX2                !
 ! R24   R(18,23)                1.0908         estimate D2E/DX2                !
 ! R25   R(19,20)                1.8244         estimate D2E/DX2                !
 ! R26   R(19,24)                1.0896         estimate D2E/DX2                !
 ! R27   R(19,25)                1.0867         estimate D2E/DX2                !
 ! R28   R(26,27)                1.5448         estimate D2E/DX2                !
 ! R29   R(26,29)                1.0903         estimate D2E/DX2                !
 ! R30   R(26,30)                1.0896         estimate D2E/DX2                !
 ! R31   R(26,31)                1.0887         estimate D2E/DX2                !
 ! R32   R(27,28)                1.8114         estimate D2E/DX2                !
 ! R33   R(27,32)                1.0911         estimate D2E/DX2                !
 ! R34   R(27,33)                1.0892         estimate D2E/DX2                !
 ! R35   R(28,34)                1.3353         estimate D2E/DX2                !
 ! A1    A(4,1,7)              104.9414         estimate D2E/DX2                !
 ! A2    A(4,1,9)              111.2494         estimate D2E/DX2                !
 ! A3    A(4,1,10)             111.9644         estimate D2E/DX2                !
 ! A4    A(7,1,9)              110.1133         estimate D2E/DX2                !
 ! A5    A(7,1,10)             111.7575         estimate D2E/DX2                !
 ! A6    A(9,1,10)             106.8827         estimate D2E/DX2                !
 ! A7    A(6,2,7)              106.2028         estimate D2E/DX2                !
 ! A8    A(6,2,14)             108.0388         estimate D2E/DX2                !
 ! A9    A(6,2,17)             115.3172         estimate D2E/DX2                !
 ! A10   A(7,2,14)             111.5376         estimate D2E/DX2                !
 ! A11   A(7,2,17)             112.6607         estimate D2E/DX2                !
 ! A12   A(14,2,17)            103.0867         estimate D2E/DX2                !
 ! A13   A(1,4,6)              103.8684         estimate D2E/DX2                !
 ! A14   A(1,4,11)             113.2874         estimate D2E/DX2                !
 ! A15   A(1,4,12)             110.4563         estimate D2E/DX2                !
 ! A16   A(6,4,11)             111.6178         estimate D2E/DX2                !
 ! A17   A(6,4,12)             112.5289         estimate D2E/DX2                !
 ! A18   A(11,4,12)            105.2793         estimate D2E/DX2                !
 ! A19   A(2,6,4)              106.939          estimate D2E/DX2                !
 ! A20   A(2,6,8)              113.8897         estimate D2E/DX2                !
 ! A21   A(2,6,13)              96.9561         estimate D2E/DX2                !
 ! A22   A(4,6,8)              125.7145         estimate D2E/DX2                !
 ! A23   A(4,6,13)             105.6555         estimate D2E/DX2                !
 ! A24   A(8,6,13)             103.2967         estimate D2E/DX2                !
 ! A25   A(1,7,2)              104.7871         estimate D2E/DX2                !
 ! A26   A(1,7,15)             112.4745         estimate D2E/DX2                !
 ! A27   A(1,7,16)             114.8858         estimate D2E/DX2                !
 ! A28   A(2,7,15)             106.124          estimate D2E/DX2                !
 ! A29   A(2,7,16)             108.0247         estimate D2E/DX2                !
 ! A30   A(15,7,16)            109.9457         estimate D2E/DX2                !
 ! A31   A(3,8,5)              120.8272         estimate D2E/DX2                !
 ! A32   A(3,8,6)              118.5394         estimate D2E/DX2                !
 ! A33   A(5,8,6)              120.4744         estimate D2E/DX2                !
 ! A34   A(6,13,20)            160.3235         estimate D2E/DX2                !
 ! A35   A(7,15,34)            104.2179         estimate D2E/DX2                !
 ! A36   A(2,17,34)             89.9182         estimate D2E/DX2                !
 ! A37   A(19,18,21)           109.982          estimate D2E/DX2                !
 ! A38   A(19,18,22)           109.7205         estimate D2E/DX2                !
 ! A39   A(19,18,23)           108.5656         estimate D2E/DX2                !
 ! A40   A(21,18,22)           108.8038         estimate D2E/DX2                !
 ! A41   A(21,18,23)           110.0005         estimate D2E/DX2                !
 ! A42   A(22,18,23)           109.7598         estimate D2E/DX2                !
 ! A43   A(18,19,20)           111.4406         estimate D2E/DX2                !
 ! A44   A(18,19,24)           110.7489         estimate D2E/DX2                !
 ! A45   A(18,19,25)           109.6081         estimate D2E/DX2                !
 ! A46   A(20,19,24)           107.9505         estimate D2E/DX2                !
 ! A47   A(20,19,25)           109.8295         estimate D2E/DX2                !
 ! A48   A(24,19,25)           107.1568         estimate D2E/DX2                !
 ! A49   A(13,20,19)           101.3784         estimate D2E/DX2                !
 ! A50   A(27,26,29)           110.0079         estimate D2E/DX2                !
 ! A51   A(27,26,30)           110.6169         estimate D2E/DX2                !
 ! A52   A(27,26,31)           107.4762         estimate D2E/DX2                !
 ! A53   A(29,26,30)           108.1547         estimate D2E/DX2                !
 ! A54   A(29,26,31)           109.9931         estimate D2E/DX2                !
 ! A55   A(30,26,31)           110.5982         estimate D2E/DX2                !
 ! A56   A(26,27,28)           111.9084         estimate D2E/DX2                !
 ! A57   A(26,27,32)           110.3293         estimate D2E/DX2                !
 ! A58   A(26,27,33)           110.853          estimate D2E/DX2                !
 ! A59   A(28,27,32)           107.8201         estimate D2E/DX2                !
 ! A60   A(28,27,33)           108.9054         estimate D2E/DX2                !
 ! A61   A(32,27,33)           106.8454         estimate D2E/DX2                !
 ! A62   A(27,28,34)            95.8652         estimate D2E/DX2                !
 ! A63   A(15,34,17)            72.5365         estimate D2E/DX2                !
 ! A64   A(15,34,28)           137.0162         estimate D2E/DX2                !
 ! A65   A(17,34,28)           148.2795         estimate D2E/DX2                !
 ! D1    D(7,1,4,6)             35.85           estimate D2E/DX2                !
 ! D2    D(7,1,4,11)           157.1417         estimate D2E/DX2                !
 ! D3    D(7,1,4,12)           -85.0345         estimate D2E/DX2                !
 ! D4    D(9,1,4,6)            -83.2046         estimate D2E/DX2                !
 ! D5    D(9,1,4,11)            38.087          estimate D2E/DX2                !
 ! D6    D(9,1,4,12)           155.9108         estimate D2E/DX2                !
 ! D7    D(10,1,4,6)           157.2695         estimate D2E/DX2                !
 ! D8    D(10,1,4,11)          -81.4389         estimate D2E/DX2                !
 ! D9    D(10,1,4,12)           36.3849         estimate D2E/DX2                !
 ! D10   D(4,1,7,2)            -34.6931         estimate D2E/DX2                !
 ! D11   D(4,1,7,15)            80.144          estimate D2E/DX2                !
 ! D12   D(4,1,7,16)          -153.0677         estimate D2E/DX2                !
 ! D13   D(9,1,7,2)             85.1216         estimate D2E/DX2                !
 ! D14   D(9,1,7,15)          -160.0413         estimate D2E/DX2                !
 ! D15   D(9,1,7,16)           -33.253          estimate D2E/DX2                !
 ! D16   D(10,1,7,2)          -156.2482         estimate D2E/DX2                !
 ! D17   D(10,1,7,15)          -41.411          estimate D2E/DX2                !
 ! D18   D(10,1,7,16)           85.3773         estimate D2E/DX2                !
 ! D19   D(7,2,6,4)              2.2682         estimate D2E/DX2                !
 ! D20   D(7,2,6,8)            145.6185         estimate D2E/DX2                !
 ! D21   D(7,2,6,13)          -106.4759         estimate D2E/DX2                !
 ! D22   D(14,2,6,4)           122.0497         estimate D2E/DX2                !
 ! D23   D(14,2,6,8)           -94.6            estimate D2E/DX2                !
 ! D24   D(14,2,6,13)           13.3055         estimate D2E/DX2                !
 ! D25   D(17,2,6,4)          -123.2739         estimate D2E/DX2                !
 ! D26   D(17,2,6,8)            20.0764         estimate D2E/DX2                !
 ! D27   D(17,2,6,13)          127.982          estimate D2E/DX2                !
 ! D28   D(6,2,7,1)             19.7383         estimate D2E/DX2                !
 ! D29   D(6,2,7,15)           -99.4622         estimate D2E/DX2                !
 ! D30   D(6,2,7,16)           142.6661         estimate D2E/DX2                !
 ! D31   D(14,2,7,1)           -97.7366         estimate D2E/DX2                !
 ! D32   D(14,2,7,15)          143.063          estimate D2E/DX2                !
 ! D33   D(14,2,7,16)           25.1913         estimate D2E/DX2                !
 ! D34   D(17,2,7,1)           146.8872         estimate D2E/DX2                !
 ! D35   D(17,2,7,15)           27.6867         estimate D2E/DX2                !
 ! D36   D(17,2,7,16)          -90.185          estimate D2E/DX2                !
 ! D37   D(6,2,17,34)           59.4993         estimate D2E/DX2                !
 ! D38   D(7,2,17,34)          -62.6425         estimate D2E/DX2                !
 ! D39   D(14,2,17,34)         176.994          estimate D2E/DX2                !
 ! D40   D(1,4,6,2)            -23.3385         estimate D2E/DX2                !
 ! D41   D(1,4,6,8)           -161.1016         estimate D2E/DX2                !
 ! D42   D(1,4,6,13)            79.1847         estimate D2E/DX2                !
 ! D43   D(11,4,6,2)          -145.7409         estimate D2E/DX2                !
 ! D44   D(11,4,6,8)            76.496          estimate D2E/DX2                !
 ! D45   D(11,4,6,13)          -43.2178         estimate D2E/DX2                !
 ! D46   D(12,4,6,2)            96.1428         estimate D2E/DX2                !
 ! D47   D(12,4,6,8)           -41.6203         estimate D2E/DX2                !
 ! D48   D(12,4,6,13)         -161.334          estimate D2E/DX2                !
 ! D49   D(2,6,8,3)           -159.54           estimate D2E/DX2                !
 ! D50   D(2,6,8,5)             25.0048         estimate D2E/DX2                !
 ! D51   D(4,6,8,3)            -24.2313         estimate D2E/DX2                !
 ! D52   D(4,6,8,5)            160.3134         estimate D2E/DX2                !
 ! D53   D(13,6,8,3)            96.5274         estimate D2E/DX2                !
 ! D54   D(13,6,8,5)           -78.9279         estimate D2E/DX2                !
 ! D55   D(2,6,13,20)         -135.8448         estimate D2E/DX2                !
 ! D56   D(4,6,13,20)          114.3384         estimate D2E/DX2                !
 ! D57   D(8,6,13,20)          -19.226          estimate D2E/DX2                !
 ! D58   D(1,7,15,34)          -83.5899         estimate D2E/DX2                !
 ! D59   D(2,7,15,34)           30.4334         estimate D2E/DX2                !
 ! D60   D(16,7,15,34)         147.0207         estimate D2E/DX2                !
 ! D61   D(6,13,20,19)         -69.2279         estimate D2E/DX2                !
 ! D62   D(7,15,34,17)         -50.3419         estimate D2E/DX2                !
 ! D63   D(7,15,34,28)         143.6437         estimate D2E/DX2                !
 ! D64   D(2,17,34,15)          61.4813         estimate D2E/DX2                !
 ! D65   D(2,17,34,28)        -136.7825         estimate D2E/DX2                !
 ! D66   D(21,18,19,20)        170.8547         estimate D2E/DX2                !
 ! D67   D(21,18,19,24)        -68.9565         estimate D2E/DX2                !
 ! D68   D(21,18,19,25)         49.0666         estimate D2E/DX2                !
 ! D69   D(22,18,19,20)         51.2058         estimate D2E/DX2                !
 ! D70   D(22,18,19,24)        171.3946         estimate D2E/DX2                !
 ! D71   D(22,18,19,25)        -70.5823         estimate D2E/DX2                !
 ! D72   D(23,18,19,20)        -68.7447         estimate D2E/DX2                !
 ! D73   D(23,18,19,24)         51.4442         estimate D2E/DX2                !
 ! D74   D(23,18,19,25)        169.4673         estimate D2E/DX2                !
 ! D75   D(18,19,20,13)         61.938          estimate D2E/DX2                !
 ! D76   D(24,19,20,13)        -59.8862         estimate D2E/DX2                !
 ! D77   D(25,19,20,13)       -176.4023         estimate D2E/DX2                !
 ! D78   D(29,26,27,28)         69.1922         estimate D2E/DX2                !
 ! D79   D(29,26,27,32)       -170.7574         estimate D2E/DX2                !
 ! D80   D(29,26,27,33)        -52.6041         estimate D2E/DX2                !
 ! D81   D(30,26,27,28)       -171.3833         estimate D2E/DX2                !
 ! D82   D(30,26,27,32)        -51.3329         estimate D2E/DX2                !
 ! D83   D(30,26,27,33)         66.8204         estimate D2E/DX2                !
 ! D84   D(31,26,27,28)        -50.5513         estimate D2E/DX2                !
 ! D85   D(31,26,27,32)         69.4991         estimate D2E/DX2                !
 ! D86   D(31,26,27,33)       -172.3477         estimate D2E/DX2                !
 ! D87   D(26,27,28,34)         75.5429         estimate D2E/DX2                !
 ! D88   D(32,27,28,34)        -45.9644         estimate D2E/DX2                !
 ! D89   D(33,27,28,34)       -161.549          estimate D2E/DX2                !
 ! D90   D(27,28,34,15)         97.8642         estimate D2E/DX2                !
 ! D91   D(27,28,34,17)        -56.1292         estimate D2E/DX2                !
 --------------------------------------------------------------------------------
 Trust Radius=3.00D-01 FncErr=1.00D-07 GrdErr=1.00D-06 EigMax=2.50D+02 EigMin=1.00D-04
 Number of steps in this run=    204 maximum allowed number of steps=    204.
 GradGradGradGradGradGradGradGradGradGradGradGradGradGradGradGradGradGrad

                          Input orientation:                          
 ---------------------------------------------------------------------
 Center     Atomic      Atomic             Coordinates (Angstroms)
 Number     Number       Type             X           Y           Z
 ---------------------------------------------------------------------
      1          6           0       16.520000    2.666000   26.038000
      2          7           0       14.188000    3.333000   26.190000
      3          8           0       13.098000   -0.164000   26.787000
      4          6           0       15.723000    1.392000   26.307000
      5          8           0       11.897000    1.629000   26.555000
      6          6           0       14.266000    1.801000   26.022000
      7          6           0       15.618000    3.803000   26.515000
      8          6           0       13.002000    1.050000   26.515000
      9          1           0       16.737000    2.780000   24.973000
     10          1           0       17.480000    2.665000   26.559000
     11          1           0       16.033000    0.550000   25.686000
     12          1           0       15.870000    1.061000   27.333000
     13          1           0       14.155901    1.780582   24.874587
     14          1           0       13.854000    3.730000   25.313000
     15          1           0       15.654000    3.938000   27.597000
     16          1           0       15.781000    4.759000   26.015000
     17          1           0       13.502000    3.663000   26.869000
     18          6           0       13.671000   -1.517000   23.510000
     19          6           0       14.180000   -0.531000   22.440000
     20         16           0       13.392099    1.105418   22.612413
     21          1           0       14.029000   -2.523000   23.290000
     22          1           0       12.581000   -1.525000   23.514000
     23          1           0       14.041000   -1.194000   24.484000
     24          1           0       15.258000   -0.395000   22.522000
     25          1           0       13.982000   -0.933000   21.450000
     26          6           0       11.786000    2.923000   29.785000
     27          6           0       13.242000    2.941000   30.301000
     28         16           0       14.315000    1.847000   29.335000
     29          1           0       11.327000    1.957000   29.997000
     30          1           0       11.195000    3.695000   30.277000
     31          1           0       11.818000    3.092000   28.710000
     32          1           0       13.653000    3.950000   30.241000
     33          1           0       13.286000    2.644000   31.348000
     34          1           0       14.409000    2.651000   28.273000
 ---------------------------------------------------------------------
                    Distance matrix (angstroms):
                    1          2          3          4          5
     1  C    0.000000
     2  N    2.430271   0.000000
     3  O    4.503330   3.711269   0.000000
     4  C    1.526645   2.477377   3.089039   0.000000
     5  O    4.766003   2.878458   2.170501   3.841347   0.000000
     6  C    2.414332   1.543157   2.410534   1.539920   2.434304
     7  C    1.527711   1.539943   4.707597   2.422232   4.309724
     8  C    3.900681   2.593127   1.247796   2.750285   1.248145
     9  H    1.092845   2.878246   5.019965   2.175844   5.220453
    10  H    1.092265   3.379297   5.220838   2.184281   5.678310
    11  H    2.199666   3.376852   3.215000   1.091194   4.361869
    12  H    2.162302   3.049190   3.079403   1.088047   4.088109
    13  H    2.779651   2.035029   2.925385   2.158379   2.819468
    14  H    2.960621   1.018967   4.231719   3.153956   3.128356
    15  H    2.190530   2.120101   4.900575   2.854992   4.531257
    16  H    2.219752   2.145169   5.659541   3.380136   5.017365
    17  H    3.285254   1.020067   3.849139   3.225853   2.609938
    18  C    5.657303   5.565266   3.591332   4.527272   4.724026
    19  C    5.351823   5.384520   4.494644   4.586117   5.177926
    20  S    4.894265   4.288906   4.373225   4.377808   4.248936
    21  H    6.378268   6.536667   4.319798   5.224859   5.696030
    22  H    6.280985   5.774391   3.582198   5.116825   4.434327
    23  H    4.843548   4.840018   2.693317   3.583274   4.105497
    24  H    4.829557   5.338268   4.786354   4.211392   5.626543
    25  H    6.359559   6.380344   5.464100   5.659254   6.080468
    26  C    6.042914   4.343009   4.498768   5.471783   3.481330
    27  C    5.384615   4.236614   4.691477   4.950434   4.190810
    28  S    4.050061   3.480711   3.466629   3.370204   3.690887
    29  H    6.568380   4.957010   4.235467   5.767161   3.504261
    30  H    6.883574   5.078648   5.540162   6.447286   4.314446
    31  H    5.424930   3.467763   3.992226   4.890136   2.605885
    32  H    5.247243   4.132495   5.400290   5.128803   4.696506
    33  H    6.217342   5.281410   5.359378   5.737434   5.092386
    34  H    3.074373   2.202919   3.442549   2.678961   3.210320
                    6          7          8          9         10
     6  C    0.000000
     7  C    2.465554   0.000000
     8  C    1.550724   3.797692   0.000000
     9  H    2.857391   2.162511   4.395553   0.000000
    10  H    3.371151   2.182664   4.760530   1.755184   0.000000
    11  H    2.190933   3.382525   3.181855   2.444767   2.707243
    12  H    2.199804   2.872489   2.982393   3.045694   2.400832
    13  H    1.152863   2.986446   2.134524   2.769584   3.830023
    14  H    2.096060   2.135844   3.058285   3.054470   3.979273
    15  H    2.995653   1.090984   4.067477   3.065816   2.456064
    16  H    3.323408   1.091103   4.661494   2.432312   2.750886
    17  H    2.183609   2.149970   2.683856   3.852237   4.112978
    18  C    4.203962   6.412740   4.008376   5.477676   6.426041
    19  C    4.275084   6.120214   4.526905   4.890507   6.170136
    20  S    3.587872   5.240398   3.922427   4.423230   5.892265
    21  H    5.120251   7.276251   4.921553   6.187694   7.036413
    22  H    4.493503   6.827661   3.976665   6.159062   7.129399
    23  H    3.374329   5.619777   3.200003   4.827029   5.569940
    24  H    4.249292   5.804899   4.808494   4.274982   5.531569
    25  H    5.334660   7.124635   5.526926   5.812738   7.161249
    26  C    4.644293   5.113856   3.959758   6.905664   6.549449
    27  C    4.545109   4.552166   4.238782   6.374051   5.660334
    28  S    3.313682   3.670987   3.211165   5.075787   4.288651
    29  H    4.945976   5.826210   3.968954   7.428728   7.083821
    30  H    5.578826   5.807516   4.941044   7.725504   7.374663
    31  H    3.858073   4.445621   3.223297   6.185392   6.071851
    32  H    4.774299   4.214963   4.766223   6.215447   5.463907
    33  H    5.480632   5.489936   5.096997   7.250415   6.365893
    34  H    2.410384   2.424737   2.762863   4.040572   3.516964
                   11         12         13         14         15
    11  H    0.000000
    12  H    1.732137   0.000000
    13  H    2.386676   3.082162   0.000000
    14  H    3.872928   3.907457   2.020787   0.000000
    15  H    3.908210   2.897150   3.782894   2.915462   0.000000
    16  H    4.229353   3.926862   3.579450   2.294553   1.786867
    17  H    4.182848   3.548679   2.819356   1.596724   2.288387
    18  C    3.819229   5.108524   3.601565   5.551154   7.098794
    19  C    3.890846   5.415904   3.357262   5.149420   6.981353
    20  S    4.090206   5.331596   2.481265   3.794068   6.163264
    21  H    4.381799   5.707906   4.587792   6.574433   7.933183
    22  H    4.575971   5.664775   3.906198   5.698417   7.480547
    23  H    2.907646   4.067809   3.002315   4.996798   6.215301
    24  H    3.391835   5.063615   3.388576   5.174604   6.684858
    25  H    4.934530   6.492324   4.372821   6.056626   8.019217
    26  C    6.361599   5.114529   5.570790   4.992660   4.558398
    27  C    5.899558   4.387460   5.623854   5.086965   3.758107
    28  S    4.236618   2.654021   4.463743   4.464829   3.030816
    29  H    6.535350   5.342149   5.854307   5.609734   5.329849
    30  H    7.373910   6.120516   6.451201   5.631412   5.208083
    31  H    5.776899   4.737066   4.679315   4.011477   4.082815
    32  H    6.162177   4.660244   5.810135   4.937002   3.315853
    33  H    6.632427   5.030226   6.588421   6.158185   4.620807
    34  H    3.707310   2.355042   3.517228   3.199041   1.913993
                   16         17         18         19         20
    16  H    0.000000
    17  H    2.669152   0.000000
    18  C    7.079216   6.176070   0.000000
    19  C    6.582395   6.137211   1.541485   0.000000
    20  S    5.534719   4.967076   2.785772   1.824385   0.000000
    21  H    7.970110   7.166140   1.090229   2.171029   3.745689
    22  H    7.482223   6.246568   1.090037   2.167559   2.896522
    23  H    6.388252   5.437756   1.090828   2.153329   3.035002
    24  H    6.248063   6.200589   2.180275   1.089635   2.396042
    25  H    7.514951   7.121740   2.163649   1.086696   2.419573
    26  C    5.791703   3.463425   7.914698   8.462291   7.571603
    27  C    5.302965   3.516747   8.134832   8.644649   7.906091
    28  S    4.653096   3.168593   6.757356   7.294802   6.826044
    29  H    6.598912   4.174380   7.722965   8.452100   7.715047
    30  H    6.350444   4.115548   8.893133   9.390840   8.383262
    31  H    5.074178   2.559527   7.191418   7.616960   6.603398
    32  H    4.800202   3.387559   8.671492   9.011808   8.145862
    33  H    6.256128   4.598528   8.882364   9.499070   8.870681
    34  H    3.380031   1.953973   6.372051   6.648417   5.955263
                   21         22         23         24         25
    21  H    0.000000
    22  H    1.772818   0.000000
    23  H    1.786623   1.783833   0.000000
    24  H    2.574616   3.070390   2.443140   0.000000
    25  H    2.432264   2.563857   3.045777   1.751229   0.000000
    26  C    8.767838   7.729306   7.080630   8.707185   9.442636
    27  C    8.923496   8.151408   7.181512   8.700919   9.689978
    28  S    7.464631   6.947027   5.731924   7.234140   8.367348
    29  H    8.506177   7.464994   6.905633   8.767000   9.404910
    30  H    9.773088   8.654916   8.096968   9.663131  10.348994
    31  H    8.111297   6.992659   6.416432   7.892028   8.578527
    32  H    9.505657   8.739413   7.730092   9.002111  10.061491
    33  H    9.601109   8.902199   7.900302   9.540576  10.547500
    34  H    7.193397   6.590041   5.410727   6.562996   7.718854
                   26         27         28         29         30
    26  C    0.000000
    27  C    1.544835   0.000000
    28  S    2.784981   1.811442   0.000000
    29  H    1.090312   2.174373   3.062432   0.000000
    30  H    1.089646   2.181582   3.746581   1.765352   0.000000
    31  H    1.088674   2.140528   2.859311   1.784846   1.790873
    32  H    2.179072   1.091147   2.383629   3.072761   2.471454
    33  H    2.184218   1.089199   2.397127   2.476863   2.573698
    34  H    3.039779   2.357705   1.335326   3.598963   3.928835
                   31         32         33         34
    31  H    0.000000
    32  H    2.539163   0.000000
    33  H    3.052011   1.750935   0.000000
    34  H    2.664344   2.476280   3.273653   0.000000
 Symmetry turned off by external request.
 Stoichiometry    C9H20NO2S2(1-)
 Framework group  C1[X(C9H20NO2S2)]
 Deg. of freedom    96
 Full point group                 C1      NOp   1
 Rotational constants (GHZ):           0.7483291           0.2654905           0.2376704
 Standard basis: 6-31+G(d,p) (6D, 7F)
   374 basis functions,   636 primitive gaussians,   374 cartesian basis functions
    65 alpha electrons       65 beta electrons
       nuclear repulsion energy      1186.9869913494 Hartrees.
 NAtoms=   34 NActive=   34 NUniq=   34 SFac= 1.00D+00 NAtFMM=   60 NAOKFM=F Big=F
 Integral buffers will be    131072 words long.
 Raffenetti 2 integral format.
 Two-electron integral symmetry is turned off.
 Nuclear repulsion after empirical dispersion term =     1186.9494847827 Hartrees.
 One-electron integrals computed using PRISM.
 NBasis=   374 RedAO= T EigKep=  9.45D-06  NBF=   374
 NBsUse=   374 1.00D-06 EigRej= -1.00D+00 NBFU=   374
 ExpMin= 4.05D-02 ExpMax= 2.19D+04 ExpMxC= 3.30D+03 IAcc=3 IRadAn=         5 AccDes= 0.00D+00
 Harris functional with IExCor=  402 and IRadAn=       5 diagonalized for initial guess.
 HarFok:  IExCor=  402 AccDes= 0.00D+00 IRadAn=         5 IDoV= 1 UseB2=F ITyADJ=14
 ICtDFT=  3500011 ScaDFX=  1.000000  1.000000  1.000000  1.000000
 FoFCou: FMM=F IPFlag=           0 FMFlag=      100000 FMFlg1=           0
         NFxFlg=           0 DoJE=T BraDBF=F KetDBF=T FulRan=T
         wScrn=  0.000000 ICntrl=       500 IOpCl=  0 I1Cent=   200000004 NGrid=           0
         NMat0=    1 NMatS0=      1 NMatT0=    0 NMatD0=    1 NMtDS0=    0 NMtDT0=    0
 Symmetry not used in FoFCou.
 Requested convergence on RMS density matrix=1.00D-08 within 128 cycles.
 Requested convergence on MAX density matrix=1.00D-06.
 Requested convergence on             energy=1.00D-06.
 No special actions if energy rises.
 SCF Done:  E(RB3LYP) =  -1356.64671549     A.U. after   18 cycles
            NFock= 18  Conv=0.74D-08     -V/T= 2.0058

 **********************************************************************

            Population analysis using the SCF Density.

 **********************************************************************

 Alpha  occ. eigenvalues --  -88.79426 -88.62598 -18.94640 -18.93703 -14.37210
 Alpha  occ. eigenvalues --  -10.19160 -10.14230 -10.13161 -10.13005 -10.12605
 Alpha  occ. eigenvalues --  -10.10721 -10.09551 -10.03344 -10.01302  -7.85556
 Alpha  occ. eigenvalues --   -7.68568  -5.82074  -5.81712  -5.80996  -5.65132
 Alpha  occ. eigenvalues --   -5.64436  -5.64321  -0.92510  -0.88015  -0.78085
 Alpha  occ. eigenvalues --   -0.73494  -0.72422  -0.67054  -0.62298  -0.60333
 Alpha  occ. eigenvalues --   -0.57013  -0.53849  -0.52405  -0.50352  -0.48386
 Alpha  occ. eigenvalues --   -0.47324  -0.41222  -0.39171  -0.39004  -0.37535
 Alpha  occ. eigenvalues --   -0.36370  -0.35697  -0.34935  -0.32077  -0.31218
 Alpha  occ. eigenvalues --   -0.29754  -0.29502  -0.29006  -0.28340  -0.27836
 Alpha  occ. eigenvalues --   -0.27322  -0.25961  -0.25230  -0.24213  -0.24087
 Alpha  occ. eigenvalues --   -0.21282  -0.20275  -0.19023  -0.15080  -0.13091
 Alpha  occ. eigenvalues --   -0.10510  -0.09182  -0.07329  -0.01485  -0.00936
 Alpha virt. eigenvalues --    0.04471   0.07133   0.07404   0.08841   0.09173
 Alpha virt. eigenvalues --    0.10123   0.11149   0.11707   0.12769   0.13078
 Alpha virt. eigenvalues --    0.14323   0.14426   0.15102   0.15524   0.15866
 Alpha virt. eigenvalues --    0.15954   0.16523   0.17040   0.17642   0.17857
 Alpha virt. eigenvalues --    0.18293   0.18331   0.18793   0.19306   0.19993
 Alpha virt. eigenvalues --    0.20431   0.20601   0.21187   0.21331   0.21916
 Alpha virt. eigenvalues --    0.22178   0.22788   0.22898   0.23533   0.23837
 Alpha virt. eigenvalues --    0.24377   0.24522   0.24751   0.24927   0.25749
 Alpha virt. eigenvalues --    0.26551   0.27079   0.27246   0.27640   0.28632
 Alpha virt. eigenvalues --    0.29067   0.29300   0.29557   0.30310   0.30590
 Alpha virt. eigenvalues --    0.30957   0.31355   0.31456   0.31732   0.32780
 Alpha virt. eigenvalues --    0.33685   0.33974   0.34515   0.35052   0.35376
 Alpha virt. eigenvalues --    0.37127   0.37366   0.38489   0.38879   0.39380
 Alpha virt. eigenvalues --    0.39984   0.40672   0.41466   0.41886   0.42395
 Alpha virt. eigenvalues --    0.42958   0.43811   0.44905   0.45566   0.45914
 Alpha virt. eigenvalues --    0.46822   0.47737   0.48933   0.49517   0.50225
 Alpha virt. eigenvalues --    0.51728   0.51998   0.53215   0.54349   0.56180
 Alpha virt. eigenvalues --    0.56790   0.58955   0.60154   0.62629   0.63124
 Alpha virt. eigenvalues --    0.66131   0.67282   0.68133   0.69652   0.70070
 Alpha virt. eigenvalues --    0.70804   0.72852   0.73495   0.74363   0.74726
 Alpha virt. eigenvalues --    0.75554   0.76779   0.78186   0.78696   0.79669
 Alpha virt. eigenvalues --    0.80201   0.81642   0.82341   0.82565   0.83497
 Alpha virt. eigenvalues --    0.84060   0.84812   0.85311   0.85966   0.87503
 Alpha virt. eigenvalues --    0.89840   0.90415   0.90980   0.93027   0.93994
 Alpha virt. eigenvalues --    0.95654   0.96732   0.97872   0.99003   0.99163
 Alpha virt. eigenvalues --    1.00884   1.01219   1.02149   1.03858   1.05116
 Alpha virt. eigenvalues --    1.05926   1.06688   1.07140   1.07565   1.08849
 Alpha virt. eigenvalues --    1.09846   1.11712   1.12592   1.13126   1.14077
 Alpha virt. eigenvalues --    1.14404   1.15722   1.15917   1.17267   1.18575
 Alpha virt. eigenvalues --    1.20017   1.20031   1.20208   1.21607   1.22679
 Alpha virt. eigenvalues --    1.24284   1.26365   1.27673   1.28647   1.31317
 Alpha virt. eigenvalues --    1.33119   1.35752   1.37312   1.37634   1.39945
 Alpha virt. eigenvalues --    1.42086   1.44552   1.45608   1.46527   1.49114
 Alpha virt. eigenvalues --    1.50487   1.51238   1.51717   1.54849   1.55947
 Alpha virt. eigenvalues --    1.57874   1.59319   1.59697   1.61497   1.62143
 Alpha virt. eigenvalues --    1.63215   1.65671   1.66908   1.68828   1.71023
 Alpha virt. eigenvalues --    1.71489   1.74702   1.77533   1.79182   1.82928
 Alpha virt. eigenvalues --    1.84683   1.86042   1.86741   1.89196   1.91069
 Alpha virt. eigenvalues --    1.94066   1.94638   1.97223   1.97551   1.98742
 Alpha virt. eigenvalues --    2.01301   2.02625   2.03653   2.05484   2.06790
 Alpha virt. eigenvalues --    2.07414   2.08839   2.09474   2.11348   2.12261
 Alpha virt. eigenvalues --    2.15263   2.15992   2.17971   2.18293   2.19093
 Alpha virt. eigenvalues --    2.19672   2.21223   2.22529   2.23818   2.24763
 Alpha virt. eigenvalues --    2.25403   2.26465   2.27479   2.29251   2.29447
 Alpha virt. eigenvalues --    2.29986   2.31517   2.32515   2.34491   2.38434
 Alpha virt. eigenvalues --    2.39619   2.41767   2.42121   2.43422   2.44295
 Alpha virt. eigenvalues --    2.47953   2.49615   2.49779   2.52198   2.52940
 Alpha virt. eigenvalues --    2.53345   2.55808   2.56361   2.58259   2.59529
 Alpha virt. eigenvalues --    2.61835   2.63057   2.64032   2.64713   2.65294
 Alpha virt. eigenvalues --    2.68524   2.71638   2.73241   2.75451   2.77301
 Alpha virt. eigenvalues --    2.77992   2.79544   2.80237   2.80901   2.82521
 Alpha virt. eigenvalues --    2.83478   2.86466   2.87490   2.88331   2.88918
 Alpha virt. eigenvalues --    2.90306   2.92338   2.93081   2.95804   2.96483
 Alpha virt. eigenvalues --    2.98422   2.98957   3.00502   3.03235   3.05579
 Alpha virt. eigenvalues --    3.06550   3.11120   3.12251   3.22180   3.32314
 Alpha virt. eigenvalues --    3.34140   3.35589   3.36376   3.38891   3.39837
 Alpha virt. eigenvalues --    3.43015   3.44020   3.45973   3.48913   3.49620
 Alpha virt. eigenvalues --    3.51371   3.56153   3.57387   3.58193   3.60752
 Alpha virt. eigenvalues --    3.62451   3.64338   3.64970   3.66698   3.72666
 Alpha virt. eigenvalues --    4.11142   4.19810   4.39022   4.44506   4.51468
 Alpha virt. eigenvalues --    4.54269   4.54708   4.61333   4.66358   4.73263
 Alpha virt. eigenvalues --    4.74971   4.77915   4.82329   4.92490
          Condensed to atoms (all electrons):
               1          2          3          4          5          6
     1  C    7.909213   0.167370   0.001260  -1.588511  -0.013213   1.693983
     2  N    0.167370   8.111205   0.113169   0.730477   0.147067  -2.095616
     3  O    0.001260   0.113169   8.452082   0.320582  -0.209402  -1.083786
     4  C   -1.588511   0.730477   0.320582  10.821471   0.104465  -6.494765
     5  O   -0.013213   0.147067  -0.209402   0.104465   8.514216  -0.701271
     6  C    1.693983  -2.095616  -1.083786  -6.494765  -0.701271  21.565806
     7  C   -1.199658  -0.190038   0.011209   0.632985   0.043807  -1.129602
     8  C   -1.132018   0.058065   0.824979   0.627215   0.596187  -5.327238
     9  H    0.445494   0.012681  -0.000055  -0.045576  -0.000105  -0.021228
    10  H    0.407558   0.006790   0.000056  -0.086777   0.000090   0.040014
    11  H   -0.031043   0.007925  -0.001008   0.423369  -0.000673  -0.101295
    12  H   -0.072998   0.048563   0.001385   0.582046  -0.000153  -0.265474
    13  H   -0.058952  -0.045489   0.001689   0.133958  -0.002796   0.078053
    14  H   -0.048646   0.184577  -0.002151  -0.066396  -0.005821   0.116624
    15  H   -0.076996  -0.025488   0.000359   0.059772   0.000125  -0.069518
    16  H   -0.073841  -0.052835   0.000034   0.017148   0.000128   0.017883
    17  H    0.030403   0.328259   0.001882   0.003095   0.009686  -0.067034
    18  C   -0.021685  -0.003920  -0.026100   0.000821  -0.001210  -0.029975
    19  C    0.025532   0.020028   0.010428  -0.044518  -0.002413   0.032210
    20  S   -0.166926  -0.131012  -0.013584  -0.043174  -0.009516   0.096105
    21  H    0.000040  -0.000017   0.000418  -0.000227  -0.000032   0.002560
    22  H    0.000924  -0.000036   0.001991   0.000099   0.000528   0.015124
    23  H   -0.002107  -0.000620  -0.003839  -0.002313   0.000307  -0.007019
    24  H    0.013246   0.000407   0.000318  -0.003236   0.000019   0.021925
    25  H   -0.001005  -0.000143  -0.000037   0.002131   0.000001  -0.007612
    26  C   -0.007070   0.012088   0.003871   0.047898  -0.023557  -0.022531
    27  C    0.049052  -0.015500  -0.001134  -0.086349  -0.007768   0.077997
    28  S   -0.046638   0.143277  -0.016293   0.272929   0.022954  -0.353311
    29  H    0.000281   0.000453   0.001215  -0.000323   0.002508   0.002752
    30  H   -0.000022  -0.000506  -0.000106  -0.000660   0.000444   0.000883
    31  H    0.000564   0.002480  -0.000178  -0.004396  -0.007158   0.002531
    32  H    0.002568  -0.000788  -0.000114  -0.006939   0.000200   0.014241
    33  H   -0.000208  -0.000472  -0.000107  -0.001622  -0.000302   0.004515
    34  H   -0.046223  -0.038804   0.000853   0.017242  -0.003696  -0.036574
               7          8          9         10         11         12
     1  C   -1.199658  -1.132018   0.445494   0.407558  -0.031043  -0.072998
     2  N   -0.190038   0.058065   0.012681   0.006790   0.007925   0.048563
     3  O    0.011209   0.824979  -0.000055   0.000056  -0.001008   0.001385
     4  C    0.632985   0.627215  -0.045576  -0.086777   0.423369   0.582046
     5  O    0.043807   0.596187  -0.000105   0.000090  -0.000673  -0.000153
     6  C   -1.129602  -5.327238  -0.021228   0.040014  -0.101295  -0.265474
     7  C    6.580879   0.685956  -0.063964  -0.039057   0.015353  -0.005272
     8  C    0.685956   9.899794   0.000608   0.000682   0.024056   0.028304
     9  H   -0.063964   0.000608   0.520663  -0.029925  -0.005114   0.004318
    10  H   -0.039057   0.000682  -0.029925   0.562073   0.000410  -0.006634
    11  H    0.015353   0.024056  -0.005114   0.000410   0.510193  -0.026220
    12  H   -0.005272   0.028304   0.004318  -0.006634  -0.026220   0.555158
    13  H    0.018233   0.091474   0.001012  -0.000067  -0.003338   0.002684
    14  H    0.027449   0.031868   0.000723  -0.000095   0.000065  -0.000370
    15  H    0.423884   0.012631   0.004063  -0.005708  -0.000034   0.000769
    16  H    0.423207   0.000193  -0.006581   0.001917  -0.000102  -0.000202
    17  H   -0.052140   0.027388  -0.000181  -0.000076  -0.000113   0.000166
    18  C   -0.002921   0.043516  -0.000149  -0.000011  -0.006982  -0.000020
    19  C   -0.006118   0.017530   0.000839  -0.000105   0.001175   0.001180
    20  S    0.116528  -0.053094   0.001388   0.000359   0.009796  -0.002766
    21  H    0.000042  -0.000258  -0.000000  -0.000000   0.000008  -0.000000
    22  H   -0.000282  -0.022590  -0.000000  -0.000000   0.000000   0.000000
    23  H    0.001834   0.007990   0.000003  -0.000000   0.000760  -0.000024
    24  H   -0.003830  -0.024856  -0.000036  -0.000000  -0.000057   0.000005
    25  H    0.000453   0.003294   0.000000   0.000000   0.000014  -0.000000
    26  C    0.013139  -0.150339   0.000003  -0.000028  -0.000164   0.001779
    27  C   -0.041987   0.132126  -0.000220   0.000009   0.000181  -0.005576
    28  S    0.010745  -0.240823   0.000111   0.002471   0.001941   0.002286
    29  H   -0.000130  -0.019501  -0.000000   0.000000   0.000000  -0.000000
    30  H    0.000043   0.004559   0.000000  -0.000000  -0.000000   0.000000
    31  H    0.001442   0.011963  -0.000000   0.000000   0.000000   0.000001
    32  H   -0.001315  -0.004009   0.000000  -0.000000  -0.000000   0.000009
    33  H    0.000810   0.002705  -0.000000  -0.000000   0.000000  -0.000002
    34  H    0.044681  -0.001907  -0.000012   0.000122   0.000323  -0.004191
              13         14         15         16         17         18
     1  C   -0.058952  -0.048646  -0.076996  -0.073841   0.030403  -0.021685
     2  N   -0.045489   0.184577  -0.025488  -0.052835   0.328259  -0.003920
     3  O    0.001689  -0.002151   0.000359   0.000034   0.001882  -0.026100
     4  C    0.133958  -0.066396   0.059772   0.017148   0.003095   0.000821
     5  O   -0.002796  -0.005821   0.000125   0.000128   0.009686  -0.001210
     6  C    0.078053   0.116624  -0.069518   0.017883  -0.067034  -0.029975
     7  C    0.018233   0.027449   0.423884   0.423207  -0.052140  -0.002921
     8  C    0.091474   0.031868   0.012631   0.000193   0.027388   0.043516
     9  H    0.001012   0.000723   0.004063  -0.006581  -0.000181  -0.000149
    10  H   -0.000067  -0.000095  -0.005708   0.001917  -0.000076  -0.000011
    11  H   -0.003338   0.000065  -0.000034  -0.000102  -0.000113  -0.006982
    12  H    0.002684  -0.000370   0.000769  -0.000202   0.000166  -0.000020
    13  H    0.478120  -0.001539  -0.000108  -0.000055   0.003061   0.000028
    14  H   -0.001539   0.375613   0.003261  -0.002818  -0.021045  -0.000053
    15  H   -0.000108   0.003261   0.535516  -0.029738  -0.007065   0.000010
    16  H   -0.000055  -0.002818  -0.029738   0.548588   0.001913   0.000028
    17  H    0.003061  -0.021045  -0.007065   0.001913   0.356171   0.000194
    18  C    0.000028  -0.000053   0.000010   0.000028   0.000194   5.602595
    19  C   -0.017404  -0.002149   0.000042  -0.000214   0.000075  -0.050086
    20  S    0.113237   0.026967  -0.000383   0.001026  -0.002520  -0.176644
    21  H    0.000019   0.000000  -0.000000   0.000000  -0.000000   0.355114
    22  H   -0.000116  -0.000001   0.000000  -0.000000   0.000000   0.417866
    23  H    0.001289   0.000008   0.000000   0.000000   0.000000   0.452964
    24  H   -0.000936  -0.000010   0.000000  -0.000000   0.000000  -0.087066
    25  H    0.000238   0.000001  -0.000000   0.000000  -0.000000  -0.060113
    26  C   -0.000196  -0.001502   0.000811  -0.000113   0.003634   0.000238
    27  C   -0.000354   0.001283  -0.004874   0.000168  -0.002260  -0.000251
    28  S    0.002724  -0.006412   0.007679   0.000522   0.006635  -0.000579
    29  H    0.000000   0.000000  -0.000000   0.000000  -0.000023  -0.000010
    30  H    0.000000   0.000000  -0.000001  -0.000000   0.000012  -0.000000
    31  H   -0.000004  -0.000015  -0.000003   0.000001   0.002221   0.000030
    32  H   -0.000000   0.000002   0.000047  -0.000008  -0.000066  -0.000000
    33  H   -0.000000   0.000000  -0.000017   0.000000   0.000009   0.000001
    34  H    0.000396   0.001823  -0.001729   0.000373  -0.003902  -0.000082
              19         20         21         22         23         24
     1  C    0.025532  -0.166926   0.000040   0.000924  -0.002107   0.013246
     2  N    0.020028  -0.131012  -0.000017  -0.000036  -0.000620   0.000407
     3  O    0.010428  -0.013584   0.000418   0.001991  -0.003839   0.000318
     4  C   -0.044518  -0.043174  -0.000227   0.000099  -0.002313  -0.003236
     5  O   -0.002413  -0.009516  -0.000032   0.000528   0.000307   0.000019
     6  C    0.032210   0.096105   0.002560   0.015124  -0.007019   0.021925
     7  C   -0.006118   0.116528   0.000042  -0.000282   0.001834  -0.003830
     8  C    0.017530  -0.053094  -0.000258  -0.022590   0.007990  -0.024856
     9  H    0.000839   0.001388  -0.000000  -0.000000   0.000003  -0.000036
    10  H   -0.000105   0.000359  -0.000000  -0.000000  -0.000000  -0.000000
    11  H    0.001175   0.009796   0.000008   0.000000   0.000760  -0.000057
    12  H    0.001180  -0.002766  -0.000000   0.000000  -0.000024   0.000005
    13  H   -0.017404   0.113237   0.000019  -0.000116   0.001289  -0.000936
    14  H   -0.002149   0.026967   0.000000  -0.000001   0.000008  -0.000010
    15  H    0.000042  -0.000383  -0.000000   0.000000   0.000000   0.000000
    16  H   -0.000214   0.001026   0.000000  -0.000000   0.000000  -0.000000
    17  H    0.000075  -0.002520  -0.000000   0.000000   0.000000   0.000000
    18  C   -0.050086  -0.176644   0.355114   0.417866   0.452964  -0.087066
    19  C    5.826123  -0.092539  -0.042136  -0.062899  -0.093950   0.423605
    20  S   -0.092539  17.175328   0.015806   0.009462   0.008570  -0.065437
    21  H   -0.042136   0.015806   0.654489  -0.034095  -0.033535  -0.001007
    22  H   -0.062899   0.009462  -0.034095   0.540655  -0.021696   0.005528
    23  H   -0.093950   0.008570  -0.033535  -0.021696   0.524738  -0.007741
    24  H    0.423605  -0.065437  -0.001007   0.005528  -0.007741   0.654693
    25  H    0.370221  -0.033862  -0.003281  -0.003964   0.005813  -0.045631
    26  C    0.000090  -0.002270  -0.000001  -0.000006   0.000008   0.000000
    27  C   -0.000101   0.001836   0.000001   0.000004  -0.000026   0.000001
    28  S    0.001415  -0.010829   0.000014   0.000061  -0.000180   0.000119
    29  H    0.000003  -0.000005   0.000000   0.000000   0.000000  -0.000000
    30  H    0.000000   0.000002   0.000000  -0.000000   0.000000   0.000000
    31  H   -0.000007   0.000011   0.000000   0.000000   0.000000   0.000000
    32  H    0.000000   0.000008   0.000000  -0.000000   0.000000  -0.000000
    33  H   -0.000000  -0.000001  -0.000000   0.000000  -0.000000   0.000000
    34  H   -0.000041   0.000536   0.000000  -0.000000   0.000001  -0.000000
              25         26         27         28         29         30
     1  C   -0.001005  -0.007070   0.049052  -0.046638   0.000281  -0.000022
     2  N   -0.000143   0.012088  -0.015500   0.143277   0.000453  -0.000506
     3  O   -0.000037   0.003871  -0.001134  -0.016293   0.001215  -0.000106
     4  C    0.002131   0.047898  -0.086349   0.272929  -0.000323  -0.000660
     5  O    0.000001  -0.023557  -0.007768   0.022954   0.002508   0.000444
     6  C   -0.007612  -0.022531   0.077997  -0.353311   0.002752   0.000883
     7  C    0.000453   0.013139  -0.041987   0.010745  -0.000130   0.000043
     8  C    0.003294  -0.150339   0.132126  -0.240823  -0.019501   0.004559
     9  H    0.000000   0.000003  -0.000220   0.000111  -0.000000   0.000000
    10  H    0.000000  -0.000028   0.000009   0.002471   0.000000  -0.000000
    11  H    0.000014  -0.000164   0.000181   0.001941   0.000000  -0.000000
    12  H   -0.000000   0.001779  -0.005576   0.002286  -0.000000   0.000000
    13  H    0.000238  -0.000196  -0.000354   0.002724   0.000000   0.000000
    14  H    0.000001  -0.001502   0.001283  -0.006412   0.000000   0.000000
    15  H   -0.000000   0.000811  -0.004874   0.007679  -0.000000  -0.000001
    16  H    0.000000  -0.000113   0.000168   0.000522   0.000000  -0.000000
    17  H   -0.000000   0.003634  -0.002260   0.006635  -0.000023   0.000012
    18  C   -0.060113   0.000238  -0.000251  -0.000579  -0.000010  -0.000000
    19  C    0.370221   0.000090  -0.000101   0.001415   0.000003   0.000000
    20  S   -0.033862  -0.002270   0.001836  -0.010829  -0.000005   0.000002
    21  H   -0.003281  -0.000001   0.000001   0.000014   0.000000   0.000000
    22  H   -0.003964  -0.000006   0.000004   0.000061   0.000000  -0.000000
    23  H    0.005813   0.000008  -0.000026  -0.000180   0.000000   0.000000
    24  H   -0.045631   0.000000   0.000001   0.000119  -0.000000   0.000000
    25  H    0.651603  -0.000000   0.000000  -0.000016   0.000000   0.000000
    26  C   -0.000000   5.483169  -0.246110   0.070914   0.433791   0.362631
    27  C    0.000000  -0.246110   6.148105  -0.087808  -0.073451  -0.016843
    28  S   -0.000016   0.070914  -0.087808  15.859212   0.016090  -0.003411
    29  H    0.000000   0.433791  -0.073451   0.016090   0.514525  -0.031347
    30  H    0.000000   0.362631  -0.016843  -0.003411  -0.031347   0.597661
    31  H   -0.000000   0.449010  -0.088757  -0.007407  -0.017026  -0.028842
    32  H    0.000000  -0.057351   0.398992  -0.057931   0.004731  -0.004146
    33  H   -0.000000  -0.005407   0.361180  -0.055803  -0.004724  -0.001620
    34  H    0.000000   0.019506  -0.057037   0.263168  -0.000325   0.000106
              31         32         33         34
     1  C    0.000564   0.002568  -0.000208  -0.046223
     2  N    0.002480  -0.000788  -0.000472  -0.038804
     3  O   -0.000178  -0.000114  -0.000107   0.000853
     4  C   -0.004396  -0.006939  -0.001622   0.017242
     5  O   -0.007158   0.000200  -0.000302  -0.003696
     6  C    0.002531   0.014241   0.004515  -0.036574
     7  C    0.001442  -0.001315   0.000810   0.044681
     8  C    0.011963  -0.004009   0.002705  -0.001907
     9  H   -0.000000   0.000000  -0.000000  -0.000012
    10  H    0.000000  -0.000000  -0.000000   0.000122
    11  H    0.000000  -0.000000   0.000000   0.000323
    12  H    0.000001   0.000009  -0.000002  -0.004191
    13  H   -0.000004  -0.000000  -0.000000   0.000396
    14  H   -0.000015   0.000002   0.000000   0.001823
    15  H   -0.000003   0.000047  -0.000017  -0.001729
    16  H    0.000001  -0.000008   0.000000   0.000373
    17  H    0.002221  -0.000066   0.000009  -0.003902
    18  C    0.000030  -0.000000   0.000001  -0.000082
    19  C   -0.000007   0.000000  -0.000000  -0.000041
    20  S    0.000011   0.000008  -0.000001   0.000536
    21  H    0.000000   0.000000  -0.000000   0.000000
    22  H    0.000000  -0.000000   0.000000  -0.000000
    23  H    0.000000   0.000000  -0.000000   0.000001
    24  H    0.000000  -0.000000   0.000000  -0.000000
    25  H   -0.000000   0.000000  -0.000000   0.000000
    26  C    0.449010  -0.057351  -0.005407   0.019506
    27  C   -0.088757   0.398992   0.361180  -0.057037
    28  S   -0.007407  -0.057931  -0.055803   0.263168
    29  H   -0.017026   0.004731  -0.004724  -0.000325
    30  H   -0.028842  -0.004146  -0.001620   0.000106
    31  H    0.503344  -0.002993   0.004432   0.002575
    32  H   -0.002993   0.597176  -0.026584  -0.009125
    33  H    0.004432  -0.026584   0.555418   0.004107
    34  H    0.002575  -0.009125   0.004107   0.880525
 Mulliken charges:
               1
     1  C   -0.159729
     2  N   -0.493595
     3  O   -0.389886
     4  C   -0.321919
     5  O   -0.453646
     6  C    0.030644
     7  C   -0.316366
     8  C   -0.156449
     9  H    0.181237
    10  H    0.145932
    11  H    0.180577
    12  H    0.161247
    13  H    0.205138
    14  H    0.388756
    15  H    0.172694
    16  H    0.153380
    17  H    0.381621
    18  C   -0.405546
    19  C   -0.315817
    20  S   -0.772403
    21  H    0.086078
    22  H    0.153443
    23  H    0.168765
    24  H    0.119977
    25  H    0.121895
    26  C   -0.385934
    27  C   -0.434530
    28  S    0.202176
    29  H    0.170516
    30  H    0.121161
    31  H    0.176181
    32  H    0.153396
    33  H    0.163691
    34  H   -0.032688
 Sum of Mulliken charges =  -1.00000
 Mulliken charges with hydrogens summed into heavy atoms:
               1
     1  C    0.167440
     2  N    0.276782
     3  O   -0.389886
     4  C    0.019905
     5  O   -0.453646
     6  C    0.235782
     7  C    0.009708
     8  C   -0.156449
    18  C    0.002740
    19  C   -0.073944
    20  S   -0.772403
    26  C    0.081924
    27  C   -0.117442
    28  S    0.169489
 Electronic spatial extent (au):  <R**2>=         417019.4487
 Charge=             -1.0000 electrons
 Dipole moment (field-independent basis, Debye):
    X=            -58.4323    Y=              2.8864    Z=           -114.4108  Tot=            128.5010
 Quadrupole moment (field-independent basis, Debye-Ang):
   XX=           -817.9349   YY=            -89.9258   ZZ=          -2864.6549
   XY=             50.7539   XZ=          -1380.8972   YZ=             92.0816
 Traceless Quadrupole moment (field-independent basis, Debye-Ang):
   XX=            439.5703   YY=           1167.5794   ZZ=          -1607.1497
   XY=             50.7539   XZ=          -1380.8972   YZ=             92.0816
 Octapole moment (field-independent basis, Debye-Ang**2):
  XXX=         -13106.2416  YYY=           -394.5393  ZZZ=         -75704.6421  XYY=          -1229.8336
  XXY=            667.8039  XXZ=         -19466.5975  XZZ=         -34561.3500  YZZ=           2603.0709
  YYZ=          -2324.9192  XYZ=           1543.4295
 Hexadecapole moment (field-independent basis, Debye-Ang**3):
 XXXX=        -230186.9798 YYYY=          -2713.5430 ZZZZ=       -2108081.9656 XXXY=           6136.3778
 XXXZ=        -317657.1398 YYYX=          -5533.7495 YYYZ=         -11029.1849 ZZZX=        -920511.5134
 ZZZY=          66492.1769 XXYY=         -17565.0978 XXZZ=        -491705.8966 YYZZ=         -61498.7019
 XXYZ=          20010.7472 YYXZ=         -31756.6882 ZZXY=          42649.3952
 N-N= 1.186949484783D+03 E-N=-5.586132333803D+03  KE= 1.348782250307D+03
 Calling FoFJK, ICntrl=      2127 FMM=F ISym2X=0 I1Cent= 0 IOpClX= 0 NMat=1 NMatS=1 NMatT=0.
 -------------------------------------------------------------------
 Center     Atomic                   Forces (Hartrees/Bohr)
 Number     Number              X              Y              Z
 -------------------------------------------------------------------
      1        6           0.004633321    0.000938643   -0.003072243
      2        7           0.018907241    0.005580354    0.004869505
      3        8           0.035940047   -0.007214306   -0.003696219
      4        6          -0.011124099    0.001355859    0.008857897
      5        8          -0.000472013    0.051511384   -0.002599612
      6        6          -0.009307386   -0.005507194   -0.048250657
      7        6          -0.011433023    0.003335294   -0.005312768
      8        6          -0.020270088   -0.034856989    0.013535918
      9        1          -0.002545245   -0.000114690   -0.002558055
     10        1           0.001151137    0.002884153    0.002424219
     11        1          -0.004259387    0.001875953   -0.004623779
     12        1          -0.000784248   -0.001749960    0.004988873
     13        1          -0.001720582   -0.015018262    0.016115488
     14        1           0.000261414   -0.001176378   -0.008939353
     15        1           0.002792328    0.001109651   -0.000260832
     16        1           0.001912661    0.001558283    0.000768379
     17        1          -0.006226022   -0.008780816    0.005271014
     18        6           0.009115387    0.008040691   -0.008506628
     19        6          -0.004746179   -0.000912999    0.010302713
     20       16          -0.000842515    0.018389875   -0.001544085
     21        1           0.003255886   -0.009078866    0.001300909
     22        1          -0.002038484    0.000595973    0.003010231
     23        1          -0.005398850   -0.002613624    0.004867252
     24        1           0.007117749   -0.004520638    0.000368296
     25        1          -0.001706800   -0.002248275   -0.008186485
     26        6           0.013654224    0.000028386    0.005880878
     27        6          -0.015169286    0.009962114   -0.001025039
     28       16           0.011435210   -0.009841418    0.012072136
     29        1          -0.000922129   -0.002068674   -0.005448925
     30        1          -0.002413892    0.004964693    0.001724602
     31        1          -0.009103539   -0.003276301   -0.004049397
     32        1           0.000484531    0.004022253    0.002504430
     33        1           0.003173102   -0.003553113    0.002664326
     34        1          -0.003350472   -0.003621057    0.006547011
 -------------------------------------------------------------------
 Cartesian Forces:  Max     0.051511384 RMS     0.010912844

 GradGradGradGradGradGradGradGradGradGradGradGradGradGradGradGradGradGrad
 Berny optimization.
 FormGI is forming the generalized inverse of G from B-inverse, IUseBI=4.
 Internal  Forces:  Max     0.062595460 RMS     0.007931472
 Search for a local minimum.
 Step number   1 out of a maximum of  204
 All quantities printed in internal units (Hartrees-Bohrs-Radians)
 Mixed Optimization -- RFO/linear search
 Second derivative matrix not updated -- first step.
 ITU=  0
     Eigenvalues ---    0.00230   0.00230   0.00230   0.00230   0.00230
     Eigenvalues ---    0.00230   0.00257   0.00295   0.00392   0.00510
     Eigenvalues ---    0.00518   0.01328   0.01690   0.02522   0.02585
     Eigenvalues ---    0.03210   0.03532   0.03996   0.04334   0.04446
     Eigenvalues ---    0.04497   0.04578   0.04733   0.04942   0.05187
     Eigenvalues ---    0.05477   0.05549   0.05610   0.05617   0.05674
     Eigenvalues ---    0.05715   0.05773   0.05846   0.05868   0.06193
     Eigenvalues ---    0.06904   0.06996   0.07061   0.07144   0.07946
     Eigenvalues ---    0.10218   0.11256   0.11373   0.13262   0.13774
     Eigenvalues ---    0.13816   0.14008   0.14561   0.16000   0.16000
     Eigenvalues ---    0.16000   0.16000   0.16000   0.16000   0.16000
     Eigenvalues ---    0.16109   0.18806   0.19898   0.21992   0.23625
     Eigenvalues ---    0.24329   0.25000   0.25000   0.25034   0.25221
     Eigenvalues ---    0.25825   0.26792   0.27458   0.27590   0.28095
     Eigenvalues ---    0.28358   0.28406   0.28464   0.29041   0.31598
     Eigenvalues ---    0.34486   0.34552   0.34675   0.34680   0.34686
     Eigenvalues ---    0.34717   0.34777   0.34786   0.34808   0.34854
     Eigenvalues ---    0.34855   0.34905   0.34966   0.35039   0.35197
     Eigenvalues ---    0.40584   0.44503   0.83926   0.840561000.00000
     Eigenvalues --- 1000.000001000.000001000.000001000.000001000.00000
     Eigenvalues --- 1000.000001000.000001000.000001000.000001000.00000
     Eigenvalues --- 1000.000001000.000001000.000001000.000001000.00000
     Eigenvalues --- 1000.000001000.000001000.000001000.000001000.00000
     Eigenvalues --- 1000.000001000.000001000.000001000.000001000.00000
     Eigenvalues --- 1000.000001000.000001000.000001000.000001000.00000
     Eigenvalues --- 1000.000001000.000001000.000001000.000001000.00000
     Eigenvalues --- 1000.000001000.000001000.000001000.000001000.00000
     Eigenvalues --- 1000.000001000.000001000.000001000.000001000.00000
     Eigenvalues --- 1000.000001000.000001000.000001000.000001000.00000
     Eigenvalues --- 1000.000001000.000001000.000001000.000001000.00000
     Eigenvalues --- 1000.000001000.000001000.000001000.000001000.00000
     Eigenvalues --- 1000.000001000.000001000.000001000.000001000.00000
     Eigenvalues --- 1000.000001000.000001000.000001000.000001000.00000
     Eigenvalues --- 1000.000001000.000001000.000001000.000001000.00000
     Eigenvalues --- 1000.000001000.000001000.000001000.000001000.00000
     Eigenvalues --- 1000.000001000.000001000.000001000.000001000.00000
     Eigenvalues --- 1000.000001000.000001000.000001000.000001000.00000
     Eigenvalues --- 1000.000001000.000001000.000001000.000001000.00000
     Eigenvalues --- 1000.000001000.000001000.000001000.000001000.00000
     Eigenvalues --- 1000.000001000.00000
 RFO step:  Lambda=-5.44907204D-02 EMin= 2.30000000D-03
 Linear search not attempted -- first point.
 Maximum step size (   0.300) exceeded in Quadratic search.
    -- Step size scaled by   0.737
 Iteration  1 RMS(Cart)=  0.13074670 RMS(Int)=  0.00723299
 Iteration  2 RMS(Cart)=  0.01769681 RMS(Int)=  0.00052064
 Iteration  3 RMS(Cart)=  0.00032400 RMS(Int)=  0.00050908
 New curvilinear step failed, DQL= 6.72D-07 SP=-2.40D-01.
 ITry= 1 IFail=1 DXMaxC= 8.02D-01 DCOld= 1.00D+10 DXMaxT= 3.00D-01 DXLimC= 3.00D+00 Rises=F
 Iteration  1 RMS(Cart)=  0.11916971 RMS(Int)=  0.00597393
 Iteration  2 RMS(Cart)=  0.01405114 RMS(Int)=  0.00041866
 Iteration  3 RMS(Cart)=  0.00021674 RMS(Int)=  0.00041305
 New curvilinear step failed, DQL= 3.46D-07 SP=-2.35D-01.
 ITry= 2 IFail=1 DXMaxC= 7.21D-01 DCOld= 1.00D+10 DXMaxT= 3.00D-01 DXLimC= 3.00D+00 Rises=F
 Iteration  1 RMS(Cart)=  0.10719298 RMS(Int)=  0.00480931
 Iteration  2 RMS(Cart)=  0.01086853 RMS(Int)=  0.00032949
 Iteration  3 RMS(Cart)=  0.00013804 RMS(Int)=  0.00032695
 New curvilinear step failed, DQL= 1.66D-07 SP=-2.31D-01.
 ITry= 3 IFail=1 DXMaxC= 6.40D-01 DCOld= 1.00D+10 DXMaxT= 3.00D-01 DXLimC= 3.00D+00 Rises=F
 Iteration  1 RMS(Cart)=  0.09483412 RMS(Int)=  0.00374831
 Iteration  2 RMS(Cart)=  0.00813621 RMS(Int)=  0.00025187
 Iteration  3 RMS(Cart)=  0.00008257 RMS(Int)=  0.00025082
 New curvilinear step failed, DQL= 7.19D-08 SP=-2.31D-01.
 ITry= 4 IFail=1 DXMaxC= 5.60D-01 DCOld= 1.00D+10 DXMaxT= 3.00D-01 DXLimC= 3.00D+00 Rises=F
 Iteration  1 RMS(Cart)=  0.08211498 RMS(Int)=  0.00280044
 Iteration  2 RMS(Cart)=  0.00583834 RMS(Int)=  0.00018505
 Iteration  3 RMS(Cart)=  0.00004548 RMS(Int)=  0.00018466
 New curvilinear step failed, DQL= 2.74D-08 SP=-2.20D-01.
 ITry= 5 IFail=1 DXMaxC= 4.79D-01 DCOld= 1.00D+10 DXMaxT= 3.00D-01 DXLimC= 3.00D+00 Rises=F
 Iteration  1 RMS(Cart)=  0.06906177 RMS(Int)=  0.00197530
 Iteration  2 RMS(Cart)=  0.00395628 RMS(Int)=  0.00012865
 Iteration  3 RMS(Cart)=  0.00002237 RMS(Int)=  0.00012852
 Iteration  4 RMS(Cart)=  0.00000000 RMS(Int)=  0.00012852
 Iteration  1 RMS(Cart)=  0.00001193 RMS(Int)=  0.00000043
 Iteration  2 RMS(Cart)=  0.00000011 RMS(Int)=  0.00000043
 ITry= 6 IFail=0 DXMaxC= 3.99D-01 DCOld= 1.00D+10 DXMaxT= 3.00D-01 DXLimC= 3.00D+00 Rises=F
 Variable       Old X    -DE/DX   Delta X   Delta X   Delta X     New X
                                 (Linear)    (Quad)   (Total)
   X18       25.83445   0.00069   0.00000   0.00000   0.00000  25.83445
   Y18       -2.86671  -0.00164   0.00000   0.00000   0.00000  -2.86671
   Z18       44.42746  -0.00231   0.00000   0.00000   0.00000  44.42746
   X26       22.27231  -0.00069   0.00000   0.00000   0.00000  22.27231
   Y26        5.52367   0.00164   0.00000   0.00000   0.00000   5.52367
   Z26       56.28549   0.00231   0.00000   0.00000   0.00000  56.28549
    R1        2.88494   0.00947   0.00000   0.01979   0.00977   2.89472
    R2        2.88696   0.00519   0.00000   0.00936   0.00474   2.89169
    R3        2.06518   0.00198   0.00000   0.00365   0.00182   2.06700
    R4        2.06408   0.00217   0.00000   0.00399   0.00200   2.06608
    R5        2.91614  -0.00794   0.00000  -0.01506  -0.00744   2.90870
    R6        2.91007  -0.01055   0.00000  -0.01996  -0.01012   2.89996
    R7        1.92557   0.00715   0.00000   0.01055   0.00528   1.93085
    R8        1.92765   0.00781   0.00000   0.01373   0.00671   1.93436
    R9        2.35799   0.00898   0.00000   0.00740   0.00370   2.36169
   R10        2.91003  -0.01255   0.00000  -0.02629  -0.01322   2.89681
   R11        2.06206  -0.00003   0.00000  -0.00005  -0.00002   2.06203
   R12        2.05611   0.00513   0.00000   0.00934   0.00467   2.06078
   R13        2.35865   0.02423   0.00000   0.01999   0.00999   2.36865
   R14        2.93044  -0.01466   0.00000  -0.03271  -0.01636   2.91409
   R15        2.17860  -0.02007   0.00000  -0.04219  -0.02103   2.15756
   R16        2.06166   0.00874   0.00000   0.01602   0.00804   2.06970
   R17        2.06189   0.00130   0.00000   0.00239   0.00119   2.06308
   R18        4.68891  -0.00736   0.00000   0.00000   0.00000   4.68891
   R19        3.61692   0.00577   0.00000   0.03611   0.01821   3.63514
   R20        3.69247   0.01078   0.00000   0.09736   0.04882   3.74130
   R21        2.91299   0.00157   0.00000   0.00292   0.00142   2.91440
   R22        2.06023   0.00918   0.00000   0.01683   0.00836   2.06859
   R23        2.05987   0.00205   0.00000   0.00375   0.00189   2.06176
   R24        2.06137   0.00174   0.00000   0.00320   0.00166   2.06303
   R25        3.44759   0.00976   0.00000   0.02565   0.01288   3.46046
   R26        2.05911   0.00651   0.00000   0.01190   0.00595   2.06506
   R27        2.05356   0.00860   0.00000   0.01560   0.00780   2.06136
   R28        2.91932  -0.00037   0.00000  -0.00089  -0.00046   2.91885
   R29        2.06039   0.00116   0.00000   0.00213   0.00108   2.06147
   R30        2.05913   0.00561   0.00000   0.01025   0.00506   2.06419
   R31        2.05729   0.00322   0.00000   0.00588   0.00300   2.06029
   R32        3.42313   0.01075   0.00000   0.02771   0.01392   3.43705
   R33        2.06197   0.00376   0.00000   0.00692   0.00346   2.06543
   R34        2.05829   0.00366   0.00000   0.00668   0.00334   2.06163
   R35        2.52340   0.01027   0.00000   0.02408   0.01207   2.53547
    A1        1.83157   0.00015   0.00000   0.00489   0.00244   1.83401
    A2        1.94167  -0.00159   0.00000  -0.01250  -0.00619   1.93548
    A3        1.95415   0.00233   0.00000   0.01434   0.00712   1.96127
    A4        1.92184  -0.00015   0.00000  -0.00361  -0.00184   1.92000
    A5        1.95054  -0.00205   0.00000  -0.01163  -0.00579   1.94474
    A6        1.86545   0.00119   0.00000   0.00768   0.00384   1.86930
    A7        1.85359   0.00862   0.00000   0.02646   0.01333   1.86692
    A8        1.88563  -0.00694   0.00000  -0.03604  -0.01814   1.86750
    A9        2.01266  -0.00382   0.00000  -0.01505  -0.00751   2.00515
   A10        1.94670  -0.00053   0.00000  -0.00230  -0.00103   1.94567
   A11        1.96630  -0.00316   0.00000   0.00685   0.00321   1.96951
   A12        1.79920   0.00514   0.00000   0.01652   0.00830   1.80750
   A13        1.81285  -0.00302   0.00000  -0.00795  -0.00394   1.80891
   A14        1.97724   0.00299   0.00000   0.00479   0.00239   1.97963
   A15        1.92783   0.00046   0.00000   0.00801   0.00391   1.93174
   A16        1.94810  -0.00276   0.00000  -0.02184  -0.01091   1.93719
   A17        1.96400   0.00131   0.00000   0.00605   0.00299   1.96699
   A18        1.83747   0.00112   0.00000   0.01105   0.00553   1.84300
   A19        1.86644   0.00082   0.00000  -0.00561  -0.00292   1.86352
   A20        1.98775  -0.00650   0.00000  -0.03547  -0.01770   1.97005
   A21        1.69220   0.00055   0.00000   0.00364   0.00185   1.69406
   A22        2.19413   0.00137   0.00000  -0.00016  -0.00050   2.19363
   A23        1.84404  -0.00177   0.00000  -0.00246  -0.00122   1.84281
   A24        1.80287   0.00630   0.00000   0.04998   0.02507   1.82794
   A25        1.82888  -0.00725   0.00000  -0.02151  -0.01081   1.81807
   A26        1.96305   0.00633   0.00000   0.02086   0.01065   1.97370
   A27        2.00514   0.00063   0.00000  -0.00127  -0.00074   2.00439
   A28        1.85221   0.00073   0.00000   0.01717   0.00838   1.86060
   A29        1.88539   0.00370   0.00000   0.00958   0.00495   1.89034
   A30        1.91891  -0.00424   0.00000  -0.02294  -0.01145   1.90746
   A31        2.10883   0.06260   0.00000   0.15351   0.07644   2.18528
   A32        2.06890  -0.02152   0.00000  -0.05018  -0.02541   2.04350
   A33        2.10268  -0.04072   0.00000  -0.09667  -0.04865   2.05403
   A34        2.79817   0.02529   0.00000   0.06830   0.03442   2.83259
   A35        1.81895   0.01114   0.00000   0.06037   0.02994   1.84888
   A36        1.56937   0.01538   0.00000   0.07917   0.03897   1.60834
   A37        1.91955   0.00279   0.00000   0.01172   0.00587   1.92541
   A38        1.91498   0.00021   0.00000  -0.00088  -0.00043   1.91455
   A39        1.89483   0.00844   0.00000   0.02848   0.01418   1.90901
   A40        1.89898  -0.00108   0.00000  -0.00264  -0.00130   1.89769
   A41        1.91987  -0.00435   0.00000  -0.01170  -0.00593   1.91394
   A42        1.91567  -0.00604   0.00000  -0.02513  -0.01261   1.90306
   A43        1.94501   0.00179   0.00000   0.01018   0.00525   1.95026
   A44        1.93293  -0.00458   0.00000  -0.01739  -0.00871   1.92422
   A45        1.91302   0.00113   0.00000   0.00127   0.00055   1.91357
   A46        1.88409   0.00311   0.00000   0.01438   0.00716   1.89125
   A47        1.91689  -0.00151   0.00000  -0.00524  -0.00266   1.91422
   A48        1.87024  -0.00002   0.00000  -0.00366  -0.00183   1.86841
   A49        1.76939  -0.01773   0.00000  -0.04929  -0.02433   1.74506
   A50        1.92000   0.00143   0.00000   0.00350   0.00173   1.92173
   A51        1.93063  -0.00243   0.00000  -0.00661  -0.00327   1.92736
   A52        1.87581   0.01297   0.00000   0.04426   0.02208   1.89789
   A53        1.88766   0.00076   0.00000   0.00324   0.00166   1.88931
   A54        1.91974  -0.00856   0.00000  -0.03306  -0.01661   1.90314
   A55        1.93030  -0.00430   0.00000  -0.01186  -0.00595   1.92435
   A56        1.95317  -0.00183   0.00000  -0.00014   0.00010   1.95326
   A57        1.92561   0.00083   0.00000   0.00708   0.00348   1.92909
   A58        1.93475   0.00238   0.00000   0.00320   0.00152   1.93627
   A59        1.88182   0.00310   0.00000   0.01549   0.00768   1.88949
   A60        1.90076  -0.00345   0.00000  -0.02238  -0.01125   1.88951
   A61        1.86480  -0.00101   0.00000  -0.00337  -0.00166   1.86314
   A62        1.67316  -0.00556   0.00000  -0.01441  -0.00706   1.66611
   A63        1.26600  -0.00682   0.00000  -0.01954  -0.01001   1.25599
   A64        2.39138   0.00262   0.00000   0.00313   0.00163   2.39301
   A65        2.58797   0.00494   0.00000   0.01730   0.00881   2.59678
    D1        0.62570   0.00128   0.00000   0.01368   0.00676   0.63246
    D2        2.74264  -0.00242   0.00000  -0.01552  -0.00777   2.73486
    D3       -1.48413   0.00125   0.00000   0.00706   0.00352  -1.48061
    D4       -1.45219   0.00220   0.00000   0.02159   0.01073  -1.44146
    D5        0.66474  -0.00150   0.00000  -0.00761  -0.00381   0.66094
    D6        2.72116   0.00217   0.00000   0.01498   0.00749   2.72865
    D7        2.74487   0.00020   0.00000   0.01068   0.00528   2.75015
    D8       -1.42138  -0.00350   0.00000  -0.01852  -0.00926  -1.43063
    D9        0.63504   0.00017   0.00000   0.00406   0.00204   0.63708
   D10       -0.60551   0.00143   0.00000   0.00954   0.00481  -0.60070
   D11        1.39878   0.00116   0.00000   0.02752   0.01357   1.41235
   D12       -2.67154   0.00138   0.00000   0.01284   0.00633  -2.66521
   D13        1.48565  -0.00044   0.00000  -0.00431  -0.00206   1.48359
   D14       -2.79325  -0.00072   0.00000   0.01367   0.00670  -2.78655
   D15       -0.58037  -0.00049   0.00000  -0.00101  -0.00054  -0.58092
   D16       -2.72704  -0.00035   0.00000  -0.00445  -0.00212  -2.72917
   D17       -0.72276  -0.00062   0.00000   0.01353   0.00664  -0.71612
   D18        1.49011  -0.00040   0.00000  -0.00115  -0.00061   1.48951
   D19        0.03959   0.00147   0.00000   0.02609   0.01306   0.05265
   D20        2.54152  -0.00264   0.00000  -0.01983  -0.00984   2.53168
   D21       -1.85836   0.00297   0.00000   0.02871   0.01438  -1.84397
   D22        2.13017   0.00189   0.00000   0.01895   0.00948   2.13965
   D23       -1.65108  -0.00222   0.00000  -0.02698  -0.01342  -1.66451
   D24        0.23223   0.00339   0.00000   0.02156   0.01080   0.24302
   D25       -2.15154   0.00145   0.00000   0.00672   0.00360  -2.14794
[...]
 1419,-0.00000256,-0.00000406,-0.00000617,0.00000821,0.00000095,-0.0000
 0041,0.00000062,-0.00000100,0.00000336,-0.00000727,-0.00000784,-0.0000
 1199,-0.00000276,0.00000010,-0.00000298,-0.00000025,-0.00000052,0.0000
 0014,0.00000132,-0.00000188,0.00000130,-0.00000121,0.00000271,-0.00000
 080,0.00000297,-0.00000014,-0.00000054,0.00000218,0.08767742,-0.085127
 35,0.02679265,0.03101556,-0.01539242,0.00993284,0.00027894,0.00164383,
 -0.00050865,-0.09929675,0.09692627,0.00006716,0.00003594,0.00004617,0.
 00014218,-0.00012244,0.00013424,0.00074343,-0.00019246,-0.00086135,0.0
 0033398,-0.00002268,-0.00045516,0.00034140,0.00013417,-0.00017688,0.00
 004920,0.00014689,0.00009648,-0.00003880,-0.00000209,-0.00015366,-0.00
 102439,-0.00020470,0.00032988,-0.00007691,-0.00000703,0.00004011,0.000
 07845,-0.00004530,-0.00000209,-0.00009143,0.00006012,0.00019169,-0.000
 15753,-0.00027502,-0.00014864,0.00003103,-0.00005972,0.00002781,0.0000
 4091,-0.00004864,-0.00009292,0.00002616,0.00012271,-0.00004625,-0.0000
 1481,-0.00000076,0.00005832,-0.00013982,0.00007524,0.00002724,0.000000
 91,-0.00000489,0.00001147,-0.00001206,0.00000112,-0.00004328,-0.000006
 03,0.00002577,0.00007468,0.00000083,0.00000484,-0.00000693,0.00000158,
 0.00000389,0.00001204,-0.00000921,-0.00000062,-0.00000834,0.00001614,-
 0.00001711,0.00002933,-0.00000076,0.00000792,0.00001634,-0.06177141,0.
 02673952,-0.06720150,0.00103150,-0.00002196,-0.00040673,-0.00038525,-0
 .00009741,-0.00009522,0.06729323,-0.03017165,0.06615710,0.00001785,0.0
 0000921,-0.00000762,-0.00003668,0.00005077,0.00012298,0.00010312,0.000
 08734,0.00000959,0.00011173,0.00000282,-0.00015039,0.00009435,0.000227
 07,0.00015793,-0.00001103,0.00004799,0.00000330,0.00000298,-0.00003747
 ,-0.00008783,-0.00016819,-0.00020287,0.00004922,-0.00002282,0.00001063
 ,0.00002397,0.00003510,-0.00003515,-0.00000857,-0.00004056,0.00004529,
 0.00008423,-0.00011656,-0.00009140,0.00002032,0.00001700,-0.00002385,-
 0.00001991,0.00004384,-0.00008342,-0.00013961,0.00004870,0.00003493,-0
 .00002808,-0.00001225,0.00000951,0.00002576,0.00002253,-0.00001077,-0.
 00003356,0.00000532,-0.00000777,0.00000345,-0.00000792,-0.00001930,-0.
 00000591,-0.00001619,0.00006270,0.00007660,-0.00000009,0.00001800,-0.0
 0000685,0.00000060,0.00000206,0.00000777,-0.00000686,-0.00000538,-0.00
 000251,0.00000960,-0.00000967,0.00000694,-0.00000365,0.00001448,0.0000
 0783,-0.16948349,-0.05110817,0.11430337,-0.00183178,0.00015878,0.00061
 770,0.00121987,-0.00139957,0.00008587,-0.01822111,-0.00875118,0.018916
 37,0.18206651,-0.00003344,-0.00002969,0.00002062,0.00001025,0.00006685
 ,0.00000651,0.00023273,0.00021258,-0.00044964,-0.00010645,-0.00004002,
 0.00014190,0.00017760,0.00078456,0.00029808,-0.00005534,-0.00004015,0.
 00001811,0.00000241,-0.00003027,-0.00001281,-0.00040115,-0.00085384,0.
 00038971,0.00003335,0.00002498,-0.00001535,-0.00002562,0.00001522,0.00
 000120,0.00005096,-0.00002151,-0.00008387,0.00002454,0.00014277,-0.000
 01669,-0.00000290,0.00002969,-0.00000516,0.00001443,-0.00002490,-0.000
 03632,0.00002006,-0.00007514,-0.00000277,0.00001236,0.00000690,-0.0000
 0982,0.00001980,-0.00006661,-0.00004677,-0.00000304,0.00000564,-0.0000
 0367,0.00000327,-0.00001218,0.00002055,0.00001278,0.00002662,-0.000000
 15,0.00000189,0.00000427,-0.00000044,-0.00000031,-0.00000203,-0.000001
 48,0.00000271,-0.00000109,0.00000193,-0.00000477,0.00000552,-0.0000102
 6,-0.00000053,0.00000357,-0.00000497,-0.05085436,-0.06928883,0.0487924
 6,-0.02256071,-0.00931148,0.02084077,-0.00212963,-0.00577713,0.0014619
 6,0.00811451,0.00371679,-0.00965126,0.05853919,0.07555611,-0.00001214,
 -0.00002915,-0.00003701,0.00009912,-0.00009343,-0.00010184,-0.00027803
 ,-0.00030773,-0.00071666,-0.00006576,0.00001225,0.00014505,-0.00000077
 ,-0.00015345,-0.00023156,-0.00003502,-0.00006777,0.00007434,-0.0000118
 6,0.00002161,0.00002592,-0.00041149,0.00012540,0.00040401,0.00003512,-
 0.00000434,-0.00000604,0.00001236,0.00001060,0.00002057,0.00005124,-0.
 00004984,-0.00007683,-0.00005833,0.00016567,-0.00009298,-0.00000030,0.
 00002674,0.00004237,-0.00003783,0.00009154,0.00015329,-0.00004600,-0.0
 0000706,0.00000028,0.00001687,-0.00000432,-0.00001137,-0.00008369,0.00
 003362,0.00004876,-0.00000794,0.00000615,-0.00000122,0.00000866,0.0000
 2602,0.00000135,0.00002562,-0.00006922,-0.00008974,0.00000115,-0.00002
 092,0.00000679,0.00000061,-0.00000224,-0.00000893,0.00000795,0.0000094
 5,0.00000307,-0.00001147,0.00000896,-0.00000421,0.00000273,-0.00001568
 ,-0.00000663,0.11486914,0.04904245,-0.15499304,-0.00087244,-0.00118075
 ,-0.00040048,-0.00048428,0.00030032,0.00114313,-0.00642771,-0.00379442
 ,0.00588966,-0.12818259,-0.05476939,0.16429546,-0.00005223,-0.00006942
 ,-0.00018377,-0.00013924,0.00007866,-0.00009166,-0.00166598,-0.0002413
 5,0.00035944,-0.00027488,-0.00000181,0.00051758,-0.00046254,-0.0006757
 4,0.00020502,-0.00024316,-0.00018129,0.00006176,0.00002805,-0.00000326
 ,0.00009055,0.00121845,0.00089280,0.00027866,0.00010632,0.00001661,-0.
 00000447,0.00000654,0.00001647,0.00003432,0.00012436,-0.00007622,-0.00
 019301,-0.00054781,0.00066104,0.00004213,0.00000955,0.00003887,-0.0000
 1510,-0.00002815,0.00005001,0.00009442,-0.00004420,-0.00002942,-0.0000
 2960,0.00001063,0.00000737,-0.00004198,0.00008151,-0.00003810,0.000005
 33,-0.00000402,0.00000401,-0.00000889,0.00001188,0.00000688,0.00003452
 ,0.00001857,-0.00003073,-0.00007757,0.00000012,-0.00000780,0.00000615,
 0.00000022,-0.00000387,-0.00001168,0.00001058,0.00000407,0.00000930,-0
 .00001742,0.00001620,-0.00002139,0.00000046,-0.00000863,-0.00001480,-0
 .06819320,-0.02220054,-0.06244762,-0.00073357,-0.00082794,-0.00015620,
 -0.00021724,0.00013591,-0.00048988,-0.00654712,-0.00989980,-0.02588065
 ,0.00611543,0.00842973,0.02232408,0.06994920,0.00001481,0.00005060,0.0
 0013981,-0.00001772,-0.00010074,0.00005272,-0.00081709,-0.00173077,-0.
 00001517,0.00007471,-0.00008891,-0.00029225,-0.00013784,-0.00141621,-0
 .00026424,0.00012350,0.00008941,0.00006136,-0.00002159,0.00004539,0.00
 002825,0.00091961,0.00236876,-0.00028838,-0.00006597,-0.00001851,-0.00
 000396,-0.00002077,0.00000207,-0.00002632,-0.00001189,-0.00000340,0.00
 002674,0.00058361,-0.00019092,-0.00007349,-0.00000172,-0.00002678,-0.0
 0002093,-0.00000334,-0.00001067,-0.00001327,-0.00001110,-0.00001148,0.
 00001242,-0.00000648,-0.00002101,0.00000090,-0.00004560,0.00002660,0.0
 0000178,0.00001073,-0.00001019,0.00000062,-0.00000230,0.00001032,-0.00
 001426,-0.00002391,-0.00000506,0.00003042,0.,-0.00000218,-0.00000326,-
 0.00000251,0.00000280,0.00000797,-0.00000896,0.00000542,-0.00000507,0.
 00000930,-0.00000793,0.00000991,-0.00000448,0.00000163,0.00000744,-0.0
 2181504,-0.07759189,-0.07827309,-0.00910478,-0.01328071,-0.03116890,0.
 00073809,0.00109723,-0.00073168,0.00286254,0.00437761,0.01348525,0.003
 30000,0.00331195,0.01005143,0.02381469,0.08883131,-0.00004199,0.000022
 31,-0.00006553,-0.00051818,0.00026089,0.00008219,-0.00206207,-0.000855
 24,0.00002537,-0.00015404,0.00000883,0.00022687,-0.00101621,-0.0024927
 4,0.00060191,0.00016502,-0.00008814,-0.00003470,0.00008059,0.00000625,
 0.00019803,0.00422453,0.00283497,-0.00527962,0.00001643,0.00000519,-0.
 00000250,-0.00006275,0.00002330,-0.00002838,-0.00000663,0.00003615,-0.
 00005877,0.00029907,-0.00020487,-0.00003046,-0.00004945,0.00000543,-0.
 00012933,-0.00000164,-0.00010560,-0.00015130,-0.00001257,-0.00002479,0
 .00000582,-0.00003062,-0.00000428,-0.00004353,0.00034983,-0.00011604,-
 0.00007216,0.00002406,-0.00001870,-0.00001447,-0.00000217,-0.00003439,
 0.00004080,-0.00008066,0.00007508,0.00009501,-0.00000381,0.00002638,-0
 .00000485,-0.00000522,0.00000139,0.00000608,-0.00001024,-0.00000834,0.
 00000491,0.00000766,-0.00000048,-0.00002136,-0.00001012,0.00001935,-0.
 00000317,-0.06244882,-0.08157314,-0.27325082,0.00123014,0.00056755,0.0
 0323335,-0.00008575,0.00029964,0.00085107,-0.00033259,-0.00126110,-0.0
 0450842,-0.00505576,-0.00568085,-0.01646195,0.06475492,0.08664811,0.29
 234360,-0.00004005,-0.00001367,0.00008475,0.00003775,0.00005896,0.0001
 5329,0.00039693,0.00008022,-0.00019146,-0.00001662,0.00002253,-0.00001
 469,0.00046848,0.00048209,0.00028041,-0.00002456,-0.00007705,-0.000034
 54,-0.00000784,-0.00008689,-0.00023297,-0.00049196,-0.00038665,0.00030
 877,0.00000610,0.00005521,-0.00001056,0.00000291,-0.00001147,-0.000003
 18,0.00001041,0.00001835,0.00000342,-0.00000374,-0.00000831,0.00002196
 ,0.00001803,0.00000987,-0.00000957,0.00006578,-0.00010195,-0.00016351,
 0.00003988,-0.00008071,0.00003366,0.00000035,0.00002624,0.00002934,-0.
 00008038,-0.00001016,-0.00007245,-0.00000100,0.00000282,0.00000180,-0.
 00000123,-0.00001999,0.00000614,0.00001205,0.00007028,0.00007467,0.000
 00215,0.00001266,-0.00000555,0.00000037,0.00000037,0.00000655,-0.00000
 281,-0.00000422,-0.00000270,0.00000333,-0.00000589,0.00000372,-0.00000
 175,0.00001095,0.00000241,0.00316463,-0.00124519,0.00006904,-0.2453539
 6,0.09771144,-0.07636104,-0.01899813,-0.00049488,0.00264688,0.00149711
 ,-0.00085888,-0.00010184,0.00026119,0.00084365,-0.00025276,0.00013018,
 0.00019798,0.00026480,0.26179964,-0.00002711,-0.00002428,0.00005698,-0
 .00006467,0.00012533,0.00004769,-0.00006457,0.00027256,-0.00012272,-0.
 00011428,0.00003389,0.00015708,-0.00004181,0.00037346,0.00028145,-0.00
 006371,-0.00004332,-0.00000590,0.00000501,-0.00005668,-0.00006472,0.00
 004827,-0.00050755,0.00003929,0.00002780,0.00003781,-0.00002123,-0.000
 04231,0.00000707,-0.00001336,0.00002755,0.00000268,-0.00003629,0.00004
 581,0.00001208,0.00000801,-0.00000021,0.00002601,-0.00001979,0.0000277
 7,-0.00004992,-0.00007309,0.00002425,-0.00008650,0.00000411,-0.0000023
 8,0.00002190,0.00000283,0.00004750,-0.00004515,-0.00005972,0.00000057,
 -0.00000071,-0.00000431,0.00000247,-0.00001570,0.00002390,-0.00000017,
 0.00003971,0.00002096,0.00000064,0.00000966,-0.00000092,-0.00000013,-0
 .00000098,-0.00000190,0.00000126,-0.00000277,0.00000328,-0.00000356,0.
 00000289,-0.00001271,-0.00000229,0.00000648,-0.00000390,0.02896175,-0.
 01426856,0.00991215,0.09186340,-0.08813771,0.02964978,-0.01308162,0.00
 303391,0.00032878,-0.00069955,-0.00691511,-0.00000238,-0.00040544,0.00
 067539,0.00055499,0.00016055,0.00116091,-0.00028933,-0.09786084,0.1005
 5643,0.00002902,0.00002705,-0.00008798,-0.00013149,0.00002744,-0.00007
 793,-0.00025775,0.00014591,0.00030798,0.00000362,-0.00001794,-0.000014
 30,-0.00043277,0.00007487,0.00018371,0.00001516,0.00012212,-0.00002761
 ,0.00003828,0.00003261,0.00018466,0.00040440,-0.00011174,-0.00019579,-
 0.00001674,-0.00004884,0.00001595,-0.00001334,0.00001246,0.00000156,-0
 .00002038,-0.00000024,-0.00000467,0.00002272,-0.00000139,0.00002065,-0
 .00001260,-0.00001674,-0.00002398,-0.00004130,0.00003783,0.00004595,-0
 .00003560,0.00010460,0.00000642,-0.00000690,-0.00002425,-0.00003126,0.
 00018040,-0.00003448,0.00003109,0.00000859,-0.00000844,-0.00000409,-0.
 00000206,0.00000559,-0.00000174,-0.00003531,-0.00002374,-0.00000592,-0
 .00000215,-0.00000188,0.00000052,-0.00000170,0.00000051,0.00000092,-0.
 00000377,0.00000176,0.00000106,0.00000390,0.00000101,-0.00000146,-0.00
 000263,0.00000003,0.00000069,0.00077939,-0.00073255,0.00159730,-0.0732
 6272,0.02699050,-0.07092904,0.02143701,-0.00110113,-0.00063725,0.00063
 513,-0.00054970,0.00097867,-0.00007923,0.00023279,-0.00007489,0.000764
 00,0.00000889,0.00027336,0.07658617,-0.03650489,0.07540099,-0.00000286
 ,-0.00000445,0.00002095,0.00000675,0.00003875,0.00000367,0.00047327,0.
 00024243,-0.00053605,-0.00003746,0.00001101,0.00006114,0.00053503,0.00
 113707,0.00048978,-0.00003202,-0.00000978,-0.00003176,0.00001752,-0.00
 002504,-0.00002190,-0.00050289,-0.00093793,0.00051249,0.00000909,0.000
 01811,-0.00000990,-0.00001586,0.00000785,-0.00001314,0.00000601,0.0000
 0484,-0.00001085,0.00000679,-0.00000005,-0.00001135,0.00000161,0.00001
 186,-0.00001041,0.00001439,-0.00002668,-0.00005183,0.00005222,-0.00003
 247,0.00004280,-0.00000649,0.00001197,0.00001209,0.00002660,-0.0000738
 7,-0.00007713,-0.00000093,0.00000179,-0.00000134,0.00000011,-0.0000095
 3,0.00000999,-0.00000027,0.00002348,0.00001625,0.00000081,0.00000475,-
 0.00000068,-0.00000026,-0.00000058,-0.00000026,0.00000018,-0.00000223,
 0.00000056,-0.00000036,0.00000124,-0.00000546,-0.00000022,0.00000410,-
 0.00000113,0.00015063,-0.00054390,-0.00097238,-0.05710018,-0.01377441,
 -0.05124985,0.00192036,0.00472767,0.02102725,0.00024295,-0.00018324,0.
 00074190,-0.00004858,-0.00033726,-0.00021073,0.00111970,-0.00016696,0.
 00054747,-0.00392414,-0.00970119,-0.02632530,0.06154844,-0.00002740,-0
 .00001916,-0.00003377,0.00006125,0.00003324,-0.00001238,0.00055628,0.0
 0044560,-0.00098014,-0.00005616,0.00004169,0.00012136,0.00035938,0.001
 21592,0.00034828,-0.00002207,-0.00005344,0.00002357,0.00001202,-0.0000
 3283,-0.00003668,-0.00080812,-0.00126385,0.00059901,0.00003510,0.00001
 697,-0.00000528,0.00000176,-0.00000026,0.00001154,0.00001641,-0.000003
 23,-0.00002701,-0.00007686,0.00004329,-0.00002807,-0.00000618,0.000032
 91,0.00001552,0.00000727,0.00000205,-0.00000092,0.00000693,-0.00002110
 ,0.00000788,0.00000772,0.00001467,-0.00000011,0.00001318,-0.00004213,-
 0.00003973,-0.00000702,0.00000767,0.00000036,0.00000158,-0.00000513,0.
 00001111,0.00002192,0.00000751,-0.00001716,0.00000062,0.00000101,0.000
 00166,0.00000147,-0.00000159,-0.00000453,0.00000567,-0.00000270,0.0000
 0232,-0.00000652,0.00000532,-0.00000602,0.00000284,-0.00000107,-0.0000
 0488,-0.00761867,-0.01245455,-0.03186289,-0.01563533,-0.07462210,-0.08
 067339,0.00144896,0.00293052,0.01029952,0.00063978,0.00097192,0.000136
 68,-0.00037123,0.00115246,0.00043643,0.00020875,-0.00669466,0.00173529
 ,0.00194574,0.00429535,0.01172021,0.02185162,0.08531968,0.00000077,-0.
 00000238,-0.00003017,0.00009313,-0.00009872,-0.00010046,-0.00012720,-0
 .00026161,0.00009333,-0.00000277,0.00001117,0.00001719,-0.00010475,-0.
 00066084,-0.00036247,0.00002069,-0.00003487,-0.00001240,-0.00002789,0.
 00003539,0.00004392,0.00000484,0.00065243,-0.00005055,0.00000932,-0.00
 002252,-0.00000066,0.00000649,0.00000085,0.00001915,0.00000440,-0.0000
 1837,-0.00000705,0.00000309,0.00001501,-0.00001648,-0.00000293,0.00000
 149,0.00004033,-0.00004094,0.00008881,0.00015372,-0.00005489,0.0000241
 1,-0.00002130,0.00001828,-0.00001097,-0.00001871,-0.00009370,0.0000803
 1,0.00008955,-0.00000750,0.00000661,0.00000176,0.00000395,0.00001832,-
 0.00000619,0.00002806,-0.00006283,-0.00008068,-0.00000070,-0.00001322,
 0.00000611,0.00000114,-0.00000071,-0.00000780,0.00000762,0.00000217,0.
 00000106,-0.00000820,0.00000656,-0.00000027,0.00000578,-0.00001444,-0.
 00000399,-0.00000524,0.00106146,0.00176258,-0.05371849,-0.08313164,-0.
 26848443,-0.00080175,-0.00280450,-0.01454932,0.00044926,-0.00035620,0.
 00020778,-0.00047545,-0.00055454,0.00065611,-0.00004102,0.00011363,0.0
 0145999,-0.00204314,-0.00315686,-0.00810158,0.05348393,0.08711960,0.28
 819658,0.00005484,0.00006786,-0.00033670,-0.00064440,0.00053053,-0.000
 24687,0.00140758,0.00174649,-0.00026700,-0.00030981,-0.00005544,0.0004
 0186,-0.00174750,0.00482841,0.00229138,-0.00017622,0.00101137,-0.00066
 632,0.00013483,0.00036776,0.00070364,-0.00169350,-0.00657190,0.0007901
 1,-0.00002439,-0.00013286,0.00003632,-0.00009823,0.00001495,-0.0000157
 9,-0.00003599,0.00002045,-0.00010517,0.00010858,0.00005223,-0.00005190
 ,0.00000825,-0.00008150,-0.00009592,-0.00011639,0.00006862,0.00017360,
 -0.00060844,0.00017802,-0.00025004,0.00002334,-0.00015132,-0.00020943,
 0.00095669,0.00006696,0.00061315,0.00003027,-0.00002825,-0.00001672,-0
 .00001424,-0.00000170,0.00001958,-0.00011026,-0.00004444,-0.00003139,-
 0.00000699,0.00000774,0.00000045,-0.00000539,0.00000153,0.00000288,-0.
 00001220,-0.00000104,0.00000636,0.00001177,0.00000136,-0.00001515,-0.0
 0000934,0.00000821,-0.00000148,0.00031394,0.00088068,-0.00046499,0.006
 59986,0.00599016,0.01925722,-0.05274573,-0.03840901,-0.07703081,-0.000
 07367,-0.00011890,-0.00014547,-0.00014795,-0.00003070,0.00003648,0.000
 22903,-0.00035955,0.00002677,0.00103090,0.00093125,-0.00022406,-0.0044
 5995,-0.00257068,0.00341579,0.05213073,0.00004396,0.00004629,-0.000041
 41,-0.00099924,0.00071362,0.00028444,0.00310595,0.00322711,-0.00164524
 ,-0.00012066,-0.00012618,0.00027284,0.00068281,0.00556524,0.00505435,0
 .00006086,0.00029484,-0.00007933,0.00017840,0.00002892,0.00031331,-0.0
 0319454,-0.01356395,-0.00037984,-0.00005847,0.00001236,-0.00000046,-0.
 00013401,0.00006859,-0.00012075,-0.00006065,0.00010218,-0.00003781,0.0
 0006954,-0.00009033,0.00008273,-0.00002891,-0.00002518,-0.00031824,0.0
 0009969,-0.00030229,-0.00065339,0.00037521,-0.00002345,0.00018499,-0.0
 0016639,0.00006359,0.00003566,0.00141062,-0.00018915,-0.00054071,0.000
 05889,-0.00004838,-0.00002094,-0.00002173,-0.00007067,0.00003974,-0.00
 022359,0.00022683,0.00040346,-0.00000525,0.00005314,-0.00002063,-0.000
 01235,0.00000657,0.00003393,-0.00004316,-0.00001187,-0.00000200,0.0000
 4552,-0.00002788,-0.00001258,-0.00002726,0.00005653,0.00001379,0.00060
 535,0.00100546,0.00096307,0.00338658,0.00450931,0.00897545,-0.03409160
 ,-0.03780051,-0.06585393,0.00013810,-0.00003843,-0.00003194,-0.0000581
 4,-0.00016698,-0.00035393,-0.00024668,-0.00017001,0.00018192,-0.000282
 60,-0.00053860,-0.00036822,-0.00226896,-0.00131998,0.00196733,0.031782
 71,0.03853327,0.00010371,0.00013951,-0.00035481,-0.00169628,0.00132303
 ,0.00026677,0.00556540,0.00648375,-0.00376853,-0.00044328,-0.00020360,
 0.00079731,0.00124798,0.01663868,0.00163771,-0.00023874,0.00150745,-0.
 00038815,0.00062265,0.00043002,0.00129278,-0.00471692,-0.02052444,0.00
 554561,-0.00006558,-0.00011410,0.00002992,-0.00026103,0.00012916,-0.00
 018292,-0.00006281,0.00011706,-0.00021862,0.00025512,0.00005081,-0.000
 06499,-0.00005383,-0.00003553,-0.00047900,0.00002761,-0.00033311,-0.00
 081973,-0.00018022,0.00002743,0.00008197,-0.00014278,-0.00013375,-0.00
 021361,0.00259754,-0.00107129,-0.00073179,0.00009352,-0.00007462,-0.00
 004748,-0.00003623,-0.00011772,0.00010440,-0.00037060,0.00030430,0.000
 49191,-0.00000839,0.00008474,-0.00002726,-0.00002084,0.00000487,0.0000
 4109,-0.00006049,-0.00001939,0.00000712,0.00006168,-0.00002169,-0.0000
 5197,-0.00004258,0.00009088,0.00000942,-0.00173440,-0.00018496,0.00132
 223,-0.00268759,-0.00402835,-0.01489587,-0.05170287,-0.05237014,-0.160
 61661,0.00016949,0.00014513,-0.00012161,-0.00023934,-0.00087039,0.0004
 0522,0.00012711,0.00050662,0.00071297,-0.00107784,-0.00069729,0.001168
 00,0.00257119,0.00114262,-0.00089466,0.05239961,0.05167433,0.16996321\
 \-0.00001009,-0.00000559,0.00000359,-0.00000056,-0.00001322,-0.0000065
 0,-0.00000811,-0.00001062,0.00000339,0.00000895,-0.00000328,0.00000070
 ,0.00000556,-0.00000494,0.00000100,-0.00000479,0.00000281,-0.00000311,
 0.00000106,0.00000648,-0.00000546,0.00000876,0.00001402,-0.00000094,0.
 00000079,0.00000015,-0.00000110,0.00000105,-0.00000171,0.00000033,-0.0
 0000221,-0.00000009,0.00000161,0.,-0.00000035,-0.00000135,0.00721197,-
 0.00075108,-0.00802532,-0.00000430,0.00000886,0.00001210,0.00000144,-0
 .00000022,0.00000828,0.00000004,-0.00000024,-0.00000056,-0.00000122,0.
 00000776,-0.00000584,-0.00004955,0.00010473,0.00016371,0.00000053,-0.0
 0000193,-0.00000126,-0.00720949,0.00075090,0.00802776,0.00000022,-0.00
 000059,0.00000052,0.00000002,0.00000037,-0.00000181,-0.00000040,0.0000
 0012,-0.00000060,-0.00000065,-0.00000047,0.00000086,0.00000085,-0.0000
 0116,-0.00000045,0.00004498,-0.00010356,-0.00017007,0.00000121,0.00000
 237,0.00000006,-0.00000183,0.00000609,0.00000780,-0.00000142,0.0000006
 4,0.00000194,-0.00000104,-0.00000096,0.00000256,-0.00000159,0.00000274
 ,-0.00000067,-0.00000069,-0.00000164,-0.00000092,0.00000227,0.00000204
 ,-0.00000139,0.00000824,-0.00000843,-0.00000885\\\@


 If your ship doesn't come in, swim out to it!
                          -- Jonathan Winters
 Job cpu time:       0 days  0 hours  0 minutes 28.5 seconds.
 Elapsed time:       0 days  0 hours  2 minutes 34.7 seconds.
 File lengths (MBytes):  RWF=    507 Int=      0 D2E=      0 Chk=     13 Scr=      1
 Normal termination of Gaussian 16 at Wed Feb  9 11:19:54 2022.
