 Entering Gaussian System, Link 0=g09
 Initial command:
 /global/apps/Gaussian/09.d01/l1.exe "/global/work/bentesirinbarge/2594854/Gau-6838.inp" -scrdir="/global/work/bentesirinbarge/2594854/"
 Entering Link 1 = /global/apps/Gaussian/09.d01/l1.exe PID=      6839.
  
 Copyright (c) 1988,1990,1992,1993,1995,1998,2003,2009,2013,
            Gaussian, Inc.  All Rights Reserved.
  
 This is part of the Gaussian(R) 09 program.  It is based on
 the Gaussian(R) 03 system (copyright 2003, Gaussian, Inc.),
 the Gaussian(R) 98 system (copyright 1998, Gaussian, Inc.),
 the Gaussian(R) 94 system (copyright 1995, Gaussian, Inc.),
 the Gaussian 92(TM) system (copyright 1992, Gaussian, Inc.),
 the Gaussian 90(TM) system (copyright 1990, Gaussian, Inc.),
 the Gaussian 88(TM) system (copyright 1988, Gaussian, Inc.),
 the Gaussian 86(TM) system (copyright 1986, Carnegie Mellon
 University), and the Gaussian 82(TM) system (copyright 1983,
 Carnegie Mellon University). Gaussian is a federally registered
 trademark of Gaussian, Inc.
  
 This software contains proprietary and confidential information,
 including trade secrets, belonging to Gaussian, Inc.
  
 This software is provided under written license and may be
 used, copied, transmitted, or stored only in accord with that
 written license.
  
 The following legend is applicable only to US Government
 contracts under FAR:
  
                    RESTRICTED RIGHTS LEGEND
  
 Use, reproduction and disclosure by the US Government is
 subject to restrictions as set forth in subparagraphs (a)
 and (c) of the Commercial Computer Software - Restricted
 Rights clause in FAR 52.227-19.
  
 Gaussian, Inc.
 340 Quinnipiac St., Bldg. 40, Wallingford CT 06492
  
  
 ---------------------------------------------------------------
 Warning -- This program may not be used in any manner that
 competes with the business of Gaussian, Inc. or will provide
 assistance to any competitor of Gaussian, Inc.  The licensee
 of this program is prohibited from giving any competitor of
 Gaussian, Inc. access to this program.  By using this program,
 the user acknowledges that Gaussian, Inc. is engaged in the
 business of creating and licensing software in the field of
 computational chemistry and represents and warrants to the
 licensee that it is not a competitor of Gaussian, Inc. and that
 it will not use this program in any manner prohibited above.
 ---------------------------------------------------------------
  

 Cite this work as:
 Gaussian 09, Revision D.01,
 M. J. Frisch, G. W. Trucks, H. B. Schlegel, G. E. Scuseria, 
 M. A. Robb, J. R. Cheeseman, G. Scalmani, V. Barone, B. Mennucci, 
 G. A. Petersson, H. Nakatsuji, M. Caricato, X. Li, H. P. Hratchian, 
 A. F. Izmaylov, J. Bloino, G. Zheng, J. L. Sonnenberg, M. Hada, 
 M. Ehara, K. Toyota, R. Fukuda, J. Hasegawa, M. Ishida, T. Nakajima, 
 Y. Honda, O. Kitao, H. Nakai, T. Vreven, J. A. Montgomery, Jr., 
 J. E. Peralta, F. Ogliaro, M. Bearpark, J. J. Heyd, E. Brothers, 
 K. N. Kudin, V. N. Staroverov, T. Keith, R. Kobayashi, J. Normand, 
 K. Raghavachari, A. Rendell, J. C. Burant, S. S. Iyengar, J. Tomasi, 
 M. Cossi, N. Rega, J. M. Millam, M. Klene, J. E. Knox, J. B. Cross, 
 V. Bakken, C. Adamo, J. Jaramillo, R. Gomperts, R. E. Stratmann, 
 O. Yazyev, A. J. Austin, R. Cammi, C. Pomelli, J. W. Ochterski, 
 R. L. Martin, K. Morokuma, V. G. Zakrzewski, G. A. Voth, 
 P. Salvador, J. J. Dannenberg, S. Dapprich, A. D. Daniels, 
 O. Farkas, J. B. Foresman, J. V. Ortiz, J. Cioslowski, 
 and D. J. Fox, Gaussian, Inc., Wallingford CT, 2013.
 
 ******************************************
 Gaussian 09:  EM64L-G09RevD.01 24-Apr-2013
                 1-Sep-2020 
 ******************************************
 %LindaWorkers=cib27-3
 %NProcShared=20
 Will use up to   20 processors via shared memory.
 %mem=16GB
 SetLPE:  input flags=""
 SetLPE:    new flags=" -nodelist 'cib27-3.ibnet'"
 Will use up to    1 processors via Linda.
 -----------------------------------------------------------
 #p b3lyp/6-31g(d,p) scrf=(read,smd) empiricaldispersion=gd3
 -----------------------------------------------------------
 1/38=1,40=2/1;
 2/12=2,17=6,18=5,40=1/2;
 3/5=1,6=6,7=101,11=2,16=1,25=1,30=1,70=32203,72=1,74=-5,124=31/1,2,3;
 4//1;
 5/5=2,38=5/2;
 6/7=2,8=2,9=2,10=2,28=1/1;
 99/5=1,9=1/99;
 Leave Link    1 at Tue Sep  1 14:37:34 2020, MaxMem=  2147483648 cpu:         1.9
 (Enter /global/apps/Gaussian/09.d01/l101.exe)
 -------------------
 Title Card Required
 -------------------
 Symbolic Z-matrix:
 Charge = -1 Multiplicity = 1
 C                    -3.83958   3.4201   -1.23369 
 C                    -2.59843   3.3771   -0.3322 
 N                    -4.72898   2.40386  -1.14882 
 C                    -2.44295   2.24507   0.68119 
 H                    -1.72627   3.39321  -0.99611 
 H                    -2.59589   4.34071   0.19229 
 O                    -4.00258   4.38461  -1.98633 
 C                    -5.93217   2.45021  -1.96121 
 H                    -4.55887   1.57242  -0.56234 
 H                    -1.67852   2.52917   1.42145 
 O                    -2.02377   1.04386   0.04192 
 H                    -3.37823   2.06083   1.21949 
 H                    -5.68731   2.5629   -3.02321 
 H                    -6.5669    3.30001  -1.68314 
 H                    -6.48969   1.52306  -1.8142 
 C                    -2.9645   -0.20157   0.15558 
 C                    -2.74377  -0.89138  -1.18707 
 O                    -2.2926   -1.0401    1.13305 
 O                    -4.17259   0.14473   0.46063 
 H                    -1.6874   -1.11597  -1.35743 
 H                    -3.3169   -1.82161  -1.20209 
 H                    -3.10793  -0.23141  -1.97668 
 C                    -2.56066  -0.68124   2.47777 
 H                    -2.16674  -1.48572   3.10668 
 H                    -2.06043   0.26017   2.75608 
 H                    -3.6345   -0.56389   2.65503 
 N                     0.44847   0.64476   0.77172 
 C                     1.38404   1.36962   0.15345 
 C                     1.05334  -0.03183   1.80931 
 N                     2.56268   1.18362   0.74781 
 H                     1.20546   2.00632  -0.69853 
 C                     2.38804   0.30112   1.80045 
 H                     0.49255  -0.69435   2.44785 
 C                     3.52531  -0.15318   2.66518 
 C                     4.31853   1.00044   3.30972 
 H                     3.11392  -0.80679   3.44244 
 H                     4.20962  -0.77065   2.07155 
 H                     5.15922   0.60046   3.88449 
 H                     3.68617   1.58635   3.98565 
 H                     4.71366   1.67543   2.54634 
 C                    -7.48463  -0.92575  -0.2142 
 C                    -6.93271  -2.28527   0.2119 
 H                    -6.77664  -0.11051  -0.04766 
 H                    -8.41003  -0.73319   0.33563 
 H                    -7.7409   -0.97048  -1.27772 
 N                    -5.63448  -2.27657   0.59267 
 O                    -7.62954  -3.30244   0.19058 
 C                    -4.96274  -3.50131   0.98517 
 H                    -5.1049   -1.39371   0.58376 
 H                    -5.10144  -4.28075   0.22817 
 H                    -5.35429  -3.89354   1.93269 
 H                    -3.89852  -3.28144   1.09732 
 C                     5.64513   1.39403  -0.11692 
 C                     7.10126   1.8634   -0.14595 
 O                     4.77855   2.28516   0.16297 
 O                     5.38665   0.18223  -0.33488 
 C                     8.08148   0.83768  -0.71015 
 H                     7.36512   2.12816   0.88666 
 H                     7.13086   2.80502  -0.70585 
 H                     9.1091    1.21626  -0.68047 
 H                     7.83728   0.5928   -1.74829 
 H                     8.03869  -0.09566  -0.14271 
 N                     3.56008  -1.78416  -1.37301 
 C                     2.11625  -1.87542  -1.24224 
 C                     4.22655  -2.54462  -2.29881 
 H                     4.0318   -0.95734  -1.00286 
 H                     1.82192  -1.65741  -0.21353 
 H                     1.59212  -1.17806  -1.90999 
 H                     1.80547  -2.88758  -1.50429 
 C                     5.72046  -2.26775  -2.38662 
 O                     3.67833  -3.4193   -2.9653 
 H                     5.93075  -1.19534  -2.39773 
 H                     6.21864  -2.67133  -1.49919 
 H                     6.11202  -2.75129  -3.28198 
 O                     5.73729  -2.23377   0.9569 
 H                     4.94192  -2.53913   0.49671 
 H                     5.85367  -1.34786   0.56059 
 H                     3.53644   1.66317   0.44377 
 H                    -0.58572   0.66153   0.4983 
 
 NAtoms=     79 NQM=       79 NQMF=       0 NMMI=      0 NMMIF=      0
                NMic=       0 NMicF=      0.
                    Isotopes and Nuclear Properties:
 (Nuclear quadrupole moments (NQMom) in fm**2, nuclear magnetic moments (NMagM)
  in nuclear magnetons)

  Atom         1           2           3           4           5           6           7           8           9          10
 IAtWgt=          12          12          14          12           1           1          16          12           1           1
 AtmWgt=  12.0000000  12.0000000  14.0030740  12.0000000   1.0078250   1.0078250  15.9949146  12.0000000   1.0078250   1.0078250
 NucSpn=           0           0           2           0           1           1           0           0           1           1
 AtZEff=   0.0000000   0.0000000   0.0000000   0.0000000   0.0000000   0.0000000   0.0000000   0.0000000   0.0000000   0.0000000
 NQMom=    0.0000000   0.0000000   2.0440000   0.0000000   0.0000000   0.0000000   0.0000000   0.0000000   0.0000000   0.0000000
 NMagM=    0.0000000   0.0000000   0.4037610   0.0000000   2.7928460   2.7928460   0.0000000   0.0000000   2.7928460   2.7928460
 AtZNuc=   6.0000000   6.0000000   7.0000000   6.0000000   1.0000000   1.0000000   8.0000000   6.0000000   1.0000000   1.0000000

  Atom        11          12          13          14          15          16          17          18          19          20
 IAtWgt=          16           1           1           1           1          12          12          16          16           1
 AtmWgt=  15.9949146   1.0078250   1.0078250   1.0078250   1.0078250  12.0000000  12.0000000  15.9949146  15.9949146   1.0078250
 NucSpn=           0           1           1           1           1           0           0           0           0           1
 AtZEff=   0.0000000   0.0000000   0.0000000   0.0000000   0.0000000   0.0000000   0.0000000   0.0000000   0.0000000   0.0000000
 NQMom=    0.0000000   0.0000000   0.0000000   0.0000000   0.0000000   0.0000000   0.0000000   0.0000000   0.0000000   0.0000000
 NMagM=    0.0000000   2.7928460   2.7928460   2.7928460   2.7928460   0.0000000   0.0000000   0.0000000   0.0000000   2.7928460
 AtZNuc=   8.0000000   1.0000000   1.0000000   1.0000000   1.0000000   6.0000000   6.0000000   8.0000000   8.0000000   1.0000000

  Atom        21          22          23          24          25          26          27          28          29          30
 IAtWgt=           1           1          12           1           1           1          14          12          12          14
 AtmWgt=   1.0078250   1.0078250  12.0000000   1.0078250   1.0078250   1.0078250  14.0030740  12.0000000  12.0000000  14.0030740
 NucSpn=           1           1           0           1           1           1           2           0           0           2
 AtZEff=   0.0000000   0.0000000   0.0000000   0.0000000   0.0000000   0.0000000   0.0000000   0.0000000   0.0000000   0.0000000
 NQMom=    0.0000000   0.0000000   0.0000000   0.0000000   0.0000000   0.0000000   2.0440000   0.0000000   0.0000000   2.0440000
 NMagM=    2.7928460   2.7928460   0.0000000   2.7928460   2.7928460   2.7928460   0.4037610   0.0000000   0.0000000   0.4037610
 AtZNuc=   1.0000000   1.0000000   6.0000000   1.0000000   1.0000000   1.0000000   7.0000000   6.0000000   6.0000000   7.0000000

  Atom        31          32          33          34          35          36          37          38          39          40
 IAtWgt=           1          12           1          12          12           1           1           1           1           1
 AtmWgt=   1.0078250  12.0000000   1.0078250  12.0000000  12.0000000   1.0078250   1.0078250   1.0078250   1.0078250   1.0078250
 NucSpn=           1           0           1           0           0           1           1           1           1           1
 AtZEff=   0.0000000   0.0000000   0.0000000   0.0000000   0.0000000   0.0000000   0.0000000   0.0000000   0.0000000   0.0000000
 NQMom=    0.0000000   0.0000000   0.0000000   0.0000000   0.0000000   0.0000000   0.0000000   0.0000000   0.0000000   0.0000000
 NMagM=    2.7928460   0.0000000   2.7928460   0.0000000   0.0000000   2.7928460   2.7928460   2.7928460   2.7928460   2.7928460
 AtZNuc=   1.0000000   6.0000000   1.0000000   6.0000000   6.0000000   1.0000000   1.0000000   1.0000000   1.0000000   1.0000000

  Atom        41          42          43          44          45          46          47          48          49          50
 IAtWgt=          12          12           1           1           1          14          16          12           1           1
 AtmWgt=  12.0000000  12.0000000   1.0078250   1.0078250   1.0078250  14.0030740  15.9949146  12.0000000   1.0078250   1.0078250
 NucSpn=           0           0           1           1           1           2           0           0           1           1
 AtZEff=   0.0000000   0.0000000   0.0000000   0.0000000   0.0000000   0.0000000   0.0000000   0.0000000   0.0000000   0.0000000
 NQMom=    0.0000000   0.0000000   0.0000000   0.0000000   0.0000000   2.0440000   0.0000000   0.0000000   0.0000000   0.0000000
 NMagM=    0.0000000   0.0000000   2.7928460   2.7928460   2.7928460   0.4037610   0.0000000   0.0000000   2.7928460   2.7928460
 AtZNuc=   6.0000000   6.0000000   1.0000000   1.0000000   1.0000000   7.0000000   8.0000000   6.0000000   1.0000000   1.0000000

  Atom        51          52          53          54          55          56          57          58          59          60
 IAtWgt=           1           1          12          12          16          16          12           1           1           1
 AtmWgt=   1.0078250   1.0078250  12.0000000  12.0000000  15.9949146  15.9949146  12.0000000   1.0078250   1.0078250   1.0078250
 NucSpn=           1           1           0           0           0           0           0           1           1           1
 AtZEff=   0.0000000   0.0000000   0.0000000   0.0000000   0.0000000   0.0000000   0.0000000   0.0000000   0.0000000   0.0000000
 NQMom=    0.0000000   0.0000000   0.0000000   0.0000000   0.0000000   0.0000000   0.0000000   0.0000000   0.0000000   0.0000000
 NMagM=    2.7928460   2.7928460   0.0000000   0.0000000   0.0000000   0.0000000   0.0000000   2.7928460   2.7928460   2.7928460
 AtZNuc=   1.0000000   1.0000000   6.0000000   6.0000000   8.0000000   8.0000000   6.0000000   1.0000000   1.0000000   1.0000000

  Atom        61          62          63          64          65          66          67          68          69          70
 IAtWgt=           1           1          14          12          12           1           1           1           1          12
 AtmWgt=   1.0078250   1.0078250  14.0030740  12.0000000  12.0000000   1.0078250   1.0078250   1.0078250   1.0078250  12.0000000
 NucSpn=           1           1           2           0           0           1           1           1           1           0
 AtZEff=   0.0000000   0.0000000   0.0000000   0.0000000   0.0000000   0.0000000   0.0000000   0.0000000   0.0000000   0.0000000
 NQMom=    0.0000000   0.0000000   2.0440000   0.0000000   0.0000000   0.0000000   0.0000000   0.0000000   0.0000000   0.0000000
 NMagM=    2.7928460   2.7928460   0.4037610   0.0000000   0.0000000   2.7928460   2.7928460   2.7928460   2.7928460   0.0000000
 AtZNuc=   1.0000000   1.0000000   7.0000000   6.0000000   6.0000000   1.0000000   1.0000000   1.0000000   1.0000000   6.0000000

  Atom        71          72          73          74          75          76          77          78          79
 IAtWgt=          16           1           1           1          16           1           1           1           1
 AtmWgt=  15.9949146   1.0078250   1.0078250   1.0078250  15.9949146   1.0078250   1.0078250   1.0078250   1.0078250
 NucSpn=           0           1           1           1           0           1           1           1           1
 AtZEff=   0.0000000   0.0000000   0.0000000   0.0000000   0.0000000   0.0000000   0.0000000   0.0000000   0.0000000
 NQMom=    0.0000000   0.0000000   0.0000000   0.0000000   0.0000000   0.0000000   0.0000000   0.0000000   0.0000000
 NMagM=    0.0000000   2.7928460   2.7928460   2.7928460   0.0000000   2.7928460   2.7928460   2.7928460   2.7928460
 AtZNuc=   8.0000000   1.0000000   1.0000000   1.0000000   8.0000000   1.0000000   1.0000000   1.0000000   1.0000000
 Leave Link  101 at Tue Sep  1 14:37:34 2020, MaxMem=  2147483648 cpu:         3.8
 (Enter /global/apps/Gaussian/09.d01/l202.exe)
 Stoichiometry    C21H44N5O9(1-)
 Framework group  C1[X(C21H44N5O9)]
 Deg. of freedom   231
 Full point group                 C1      NOp   1
 Largest Abelian subgroup         C1      NOp   1
 Largest concise Abelian subgroup C1      NOp   1
                         Standard orientation:                         
 ---------------------------------------------------------------------
 Center     Atomic      Atomic             Coordinates (Angstroms)
 Number     Number       Type             X           Y           Z
 ---------------------------------------------------------------------
      1          6           0       -3.839584    3.420095   -1.233689
      2          6           0       -2.598433    3.377104   -0.332195
      3          7           0       -4.728983    2.403862   -1.148825
      4          6           0       -2.442955    2.245074    0.681187
      5          1           0       -1.726265    3.393208   -0.996106
      6          1           0       -2.595894    4.340709    0.192290
      7          8           0       -4.002585    4.384608   -1.986333
      8          6           0       -5.932169    2.450208   -1.961205
      9          1           0       -4.558869    1.572420   -0.562340
     10          1           0       -1.678517    2.529174    1.421449
     11          8           0       -2.023771    1.043857    0.041922
     12          1           0       -3.378226    2.060830    1.219490
     13          1           0       -5.687305    2.562901   -3.023214
     14          1           0       -6.566896    3.300005   -1.683135
     15          1           0       -6.489694    1.523056   -1.814196
     16          6           0       -2.964501   -0.201572    0.155581
     17          6           0       -2.743771   -0.891377   -1.187070
     18          8           0       -2.292601   -1.040100    1.133052
     19          8           0       -4.172593    0.144729    0.460630
     20          1           0       -1.687397   -1.115965   -1.357426
     21          1           0       -3.316898   -1.821609   -1.202089
     22          1           0       -3.107930   -0.231410   -1.976682
     23          6           0       -2.560662   -0.681242    2.477770
     24          1           0       -2.166743   -1.485719    3.106683
     25          1           0       -2.060426    0.260171    2.756081
     26          1           0       -3.634503   -0.563894    2.655028
     27          7           0        0.448468    0.644755    0.771723
     28          6           0        1.384036    1.369617    0.153452
     29          6           0        1.053342   -0.031830    1.809307
     30          7           0        2.562684    1.183617    0.747810
     31          1           0        1.205456    2.006318   -0.698532
     32          6           0        2.388043    0.301118    1.800448
     33          1           0        0.492550   -0.694345    2.447847
     34          6           0        3.525314   -0.153181    2.665177
     35          6           0        4.318534    1.000444    3.309720
     36          1           0        3.113923   -0.806792    3.442436
     37          1           0        4.209616   -0.770651    2.071547
     38          1           0        5.159224    0.600459    3.884488
     39          1           0        3.686172    1.586354    3.985646
     40          1           0        4.713659    1.675426    2.546340
     41          6           0       -7.484626   -0.925753   -0.214197
     42          6           0       -6.932715   -2.285274    0.211904
     43          1           0       -6.776636   -0.110514   -0.047662
     44          1           0       -8.410030   -0.733192    0.335632
     45          1           0       -7.740900   -0.970480   -1.277717
     46          7           0       -5.634485   -2.276568    0.592674
     47          8           0       -7.629536   -3.302437    0.190583
     48          6           0       -4.962743   -3.501310    0.985169
     49          1           0       -5.104897   -1.393712    0.583758
     50          1           0       -5.101442   -4.280752    0.228167
     51          1           0       -5.354289   -3.893538    1.932687
     52          1           0       -3.898515   -3.281438    1.097319
     53          6           0        5.645129    1.394030   -0.116923
     54          6           0        7.101263    1.863404   -0.145949
     55          8           0        4.778545    2.285160    0.162972
     56          8           0        5.386650    0.182225   -0.334876
     57          6           0        8.081481    0.837679   -0.710146
     58          1           0        7.365124    2.128163    0.886663
     59          1           0        7.130864    2.805015   -0.705846
     60          1           0        9.109101    1.216258   -0.680473
     61          1           0        7.837281    0.592803   -1.748291
     62          1           0        8.038691   -0.095663   -0.142706
     63          7           0        3.560078   -1.784164   -1.373008
     64          6           0        2.116245   -1.875417   -1.242243
     65          6           0        4.226554   -2.544622   -2.298807
     66          1           0        4.031799   -0.957343   -1.002865
     67          1           0        1.821922   -1.657410   -0.213530
     68          1           0        1.592123   -1.178062   -1.909986
     69          1           0        1.805472   -2.887581   -1.504287
     70          6           0        5.720455   -2.267745   -2.386623
     71          8           0        3.678327   -3.419296   -2.965295
     72          1           0        5.930753   -1.195338   -2.397726
     73          1           0        6.218636   -2.671327   -1.499190
     74          1           0        6.112019   -2.751286   -3.281976
     75          8           0        5.737287   -2.233768    0.956897
     76          1           0        4.941919   -2.539128    0.496711
     77          1           0        5.853667   -1.347858    0.560592
     78          1           0        3.536444    1.663168    0.443768
     79          1           0       -0.585717    0.661526    0.498299
 ---------------------------------------------------------------------
 Rotational constants (GHZ):      0.1529925      0.0425043      0.0388314
 Leave Link  202 at Tue Sep  1 14:37:35 2020, MaxMem=  2147483648 cpu:         1.2
 (Enter /global/apps/Gaussian/09.d01/l301.exe)
 Standard basis: 6-31G(d,p) (6D, 7F)
 Ernie: Thresh=  0.10000D-02 Tol=  0.10000D-05 Strict=F.
 There are   745 symmetry adapted cartesian basis functions of A   symmetry.
 There are   745 symmetry adapted basis functions of A   symmetry.
   745 basis functions,  1288 primitive gaussians,   745 cartesian basis functions
   139 alpha electrons      139 beta electrons
       nuclear repulsion energy      4054.8614598718 Hartrees.
 IExCor=  402 DFT=T Ex+Corr=B3LYP ExCW=0 ScaHFX=  0.200000
 ScaDFX=  0.800000  0.720000  1.000000  0.810000 ScalE2=  1.000000  1.000000
 IRadAn=      0 IRanWt=     -1 IRanGd=            0 ICorTp=0 IEmpDi=131
 NAtoms=   79 NActive=   79 NUniq=   79 SFac= 1.00D+00 NAtFMM=   60 NAOKFM=T Big=T
 Integral buffers will be    131072 words long.
 Raffenetti 2 integral format.
 Two-electron integral symmetry is turned on.
 R6Disp:  Grimme-D3 Dispersion energy=       -0.0956855824 Hartrees.
 Nuclear repulsion after empirical dispersion term =     4054.7657742895 Hartrees.
 Using the following non-standard input for PCM:
 Eps=4
 --- end of non-standard input.
 ------------------------------------------------------------------------------
 Polarizable Continuum Model (PCM)
 =================================
 Model                : PCM (using non-symmetric T matrix).
 Atomic radii         : SMD-Coulomb.
 Polarization charges : Total charges.
 Charge compensation  : None.
 Solution method      : On-the-fly selection.
 Cavity type          : VdW (van der Waals Surface) (Alpha=1.000).
 Cavity algorithm     : GePol (No added spheres)
                        Default sphere list used, NSphG=   79.
                        Lebedev-Laikov grids with approx.  5.0 points / Ang**2.
                        Smoothing algorithm: Karplus/York (Gamma=1.0000).
                        Polarization charges: spherical gaussians, with
                                              point-specific exponents (IZeta= 3).
                        Self-potential: point-specific (ISelfS= 7).
                        Self-field    : sphere-specific E.n sum rule (ISelfD= 2).
 Solvent              : Water, Eps=   4.000000 Eps(inf)=   1.777849
 ------------------------------------------------------------------------------
 GePol: Number of generator spheres                  =      79
 GePol: Total number of spheres                      =      79
 GePol: Number of exposed spheres                    =      79 (100.00%)
 GePol: Number of points                             =    5664
 GePol: Average weight of points                     =       0.11
 GePol: Minimum weight of points                     =   0.25D-10
 GePol: Maximum weight of points                     =    0.21991
 GePol: Number of points with low weight             =     371
 GePol: Fraction of low-weight points (<1% of avg)   =       6.55%
 GePol: Cavity surface area                          =    631.534 Ang**2
 GePol: Cavity volume                                =    543.303 Ang**3
 ------------------------------------------------------------------------------
 Atomic radii for non-electrostatic terms: SMD-CDS.
 ------------------------------------------------------------------------------
 PCM non-electrostatic energy =         0.0239364332 Hartrees.
 Nuclear repulsion after PCM non-electrostatic terms =     4054.7897107227 Hartrees.
 Leave Link  301 at Tue Sep  1 14:37:35 2020, MaxMem=  2147483648 cpu:         2.6
 (Enter /global/apps/Gaussian/09.d01/l302.exe)
 NPDir=0 NMtPBC=     1 NCelOv=     1 NCel=       1 NClECP=     1 NCelD=      1
         NCelK=      1 NCelE2=     1 NClLst=     1 CellRange=     0.0.
 One-electron integrals computed using PRISM.
 NBasis=   745 RedAO= T EigKep=  1.12D-03  NBF=   745
 NBsUse=   745 1.00D-06 EigRej= -1.00D+00 NBFU=   745
 Precomputing XC quadrature grid using
 IXCGrd= 4 IRadAn=           0 IRanWt=          -1 IRanGd=           0 AccXCQ= 0.00D+00.
 Generated NRdTot=       0 NPtTot=           0 NUsed=           0 NTot=          32
 NSgBfM=   662   662   662   671   671 MxSgAt=    79 MxSgA2=    79.
 Leave Link  302 at Tue Sep  1 14:37:38 2020, MaxMem=  2147483648 cpu:        53.7
 (Enter /global/apps/Gaussian/09.d01/l303.exe)
 DipDrv:  MaxL=1.
 Leave Link  303 at Tue Sep  1 14:37:38 2020, MaxMem=  2147483648 cpu:         4.6
 (Enter /global/apps/Gaussian/09.d01/l401.exe)
 ExpMin= 1.61D-01 ExpMax= 5.48D+03 ExpMxC= 8.25D+02 IAcc=1 IRadAn=         1 AccDes= 0.00D+00
 Harris functional with IExCor=  402 and IRadAn=       1 diagonalized for initial guess.
 HarFok:  IExCor=  402 AccDes= 0.00D+00 IRadAn=         1 IDoV= 1 UseB2=F ITyADJ=14
 ICtDFT=  3500011 ScaDFX=  1.000000  1.000000  1.000000  1.000000
 FoFCou: FMM=F IPFlag=           0 FMFlag=      100000 FMFlg1=        2001
         NFxFlg=           0 DoJE=T BraDBF=F KetDBF=T FulRan=T
         wScrn=  0.000000 ICntrl=     500 IOpCl=  0 I1Cent=   200000004 NGrid=           0
         NMat0=    1 NMatS0=      1 NMatT0=    0 NMatD0=    1 NMtDS0=    0 NMtDT0=    0
 Petite list used in FoFCou.
 Harris En= -1778.10455314948    
 JPrj=0 DoOrth=F DoCkMO=F.
 Leave Link  401 at Tue Sep  1 14:37:40 2020, MaxMem=  2147483648 cpu:        36.3
 (Enter /global/apps/Gaussian/09.d01/l502.exe)
 Closed shell SCF:
 Using DIIS extrapolation, IDIIS=  1040.
 Integral symmetry usage will be decided dynamically.
 IVT=     1704170 IEndB=     1704170 NGot=  2147483648 MDV=  2146351889
 LenX=  2146351889 LenY=  2145796119
 Requested convergence on RMS density matrix=1.00D-08 within 128 cycles.
 Requested convergence on MAX density matrix=1.00D-06.
 Requested convergence on             energy=1.00D-06.
 No special actions if energy rises.
 Fock matrices will be formed incrementally for  20 cycles.

 Cycle   1  Pass 1  IDiag  1:
 FoFJK:  IHMeth= 1 ICntrl=       0 DoSepK=F KAlg= 0 I1Cent=   0 FoldK=F
 IRaf= 660000000 NMat=   1 IRICut=       1 DoRegI=T DoRafI=F ISym2E= 0.
 FoFCou: FMM=T IPFlag=           0 FMFlag=      100000 FMFlg1=        2001
         NFxFlg=           0 DoJE=F BraDBF=F KetDBF=F FulRan=T
         wScrn=  0.000000 ICntrl=       0 IOpCl=  0 I1Cent=           0 NGrid=           0
         NMat0=    1 NMatS0=      1 NMatT0=    0 NMatD0=    1 NMtDS0=    0 NMtDT0=    0
 Symmetry not used in FoFCou.
 FMM levels:  10  Number of levels for PrismC:   9
 Inv3:  Mode=1 IEnd=    96242688.
 Iteration    1 A*A^-1 deviation from unit magnitude is 1.28D-14 for   4397.
 Iteration    1 A*A^-1 deviation from orthogonality  is 1.07D-14 for   3083   2103.
 Iteration    1 A^-1*A deviation from unit magnitude is 1.22D-14 for   4372.
 Iteration    1 A^-1*A deviation from orthogonality  is 1.82D-08 for   3248   3164.
 Iteration    2 A*A^-1 deviation from unit magnitude is 1.24D-14 for   3636.
 Iteration    2 A*A^-1 deviation from orthogonality  is 1.21D-14 for   3615   1826.
 Iteration    2 A^-1*A deviation from unit magnitude is 2.00D-15 for    514.
 Iteration    2 A^-1*A deviation from orthogonality  is 1.54D-15 for   2425    111.
 E= -1776.81241146652    
 DIIS: error= 2.87D-02 at cycle   1 NSaved=   1.
 NSaved= 1 IEnMin= 1 EnMin= -1776.81241146652     IErMin= 1 ErrMin= 2.87D-02
 ErrMax= 2.87D-02  0.00D+00 EMaxC= 1.00D-01 BMatC= 1.27D+00 BMatP= 1.27D+00
 IDIUse=3 WtCom= 7.13D-01 WtEn= 2.87D-01
 Coeff-Com:  0.100D+01
 Coeff-En:   0.100D+01
 Coeff:      0.100D+01
 Gap=     0.267 Goal=   None    Shift=    0.000
 GapD=    0.267 DampG=1.000 DampE=0.500 DampFc=0.5000 IDamp=-1.
 Damping current iteration by 5.00D-01
 RMSDP=3.08D-03 MaxDP=1.91D-01              OVMax= 2.11D-01

 Cycle   2  Pass 1  IDiag  1:
 RMSU=  1.53D-03    CP:  9.85D-01
 E= -1777.25528527239     Delta-E=       -0.442873805873 Rises=F Damp=T
 DIIS: error= 7.12D-03 at cycle   2 NSaved=   2.
 NSaved= 2 IEnMin= 2 EnMin= -1777.25528527239     IErMin= 2 ErrMin= 7.12D-03
 ErrMax= 7.12D-03  0.00D+00 EMaxC= 1.00D-01 BMatC= 9.62D-02 BMatP= 1.27D+00
 IDIUse=3 WtCom= 9.29D-01 WtEn= 7.12D-02
 Coeff-Com:  0.134D+00 0.866D+00
 Coeff-En:   0.199D+00 0.801D+00
 Coeff:      0.138D+00 0.862D+00
 Gap=     0.252 Goal=   None    Shift=    0.000
 RMSDP=7.30D-04 MaxDP=5.51D-02 DE=-4.43D-01 OVMax= 1.59D-01

 Cycle   3  Pass 1  IDiag  1:
 RMSU=  6.77D-04    CP:  9.79D-01  8.29D-01
 E= -1777.84915990666     Delta-E=       -0.593874634272 Rises=F Damp=F
 DIIS: error= 9.44D-03 at cycle   3 NSaved=   3.
 NSaved= 3 IEnMin= 3 EnMin= -1777.84915990666     IErMin= 2 ErrMin= 7.12D-03
 ErrMax= 9.44D-03  0.00D+00 EMaxC= 1.00D-01 BMatC= 8.03D-02 BMatP= 9.62D-02
 IDIUse=3 WtCom= 9.06D-01 WtEn= 9.44D-02
 Coeff-Com:  0.341D-01 0.477D+00 0.489D+00
 Coeff-En:   0.000D+00 0.000D+00 0.100D+01
 Coeff:      0.309D-01 0.432D+00 0.538D+00
 Gap=     0.244 Goal=   None    Shift=    0.000
 RMSDP=4.60D-04 MaxDP=3.91D-02 DE=-5.94D-01 OVMax= 6.49D-02

 Cycle   4  Pass 1  IDiag  1:
 RMSU=  2.69D-04    CP:  9.83D-01  8.89D-01  4.71D-01
 E= -1777.90210683005     Delta-E=       -0.052946923386 Rises=F Damp=F
 DIIS: error= 4.48D-03 at cycle   4 NSaved=   4.
 NSaved= 4 IEnMin= 4 EnMin= -1777.90210683005     IErMin= 4 ErrMin= 4.48D-03
 ErrMax= 4.48D-03  0.00D+00 EMaxC= 1.00D-01 BMatC= 1.69D-02 BMatP= 8.03D-02
 IDIUse=3 WtCom= 9.55D-01 WtEn= 4.48D-02
 Coeff-Com:  0.138D-02 0.851D-01 0.322D+00 0.591D+00
 Coeff-En:   0.000D+00 0.000D+00 0.193D+00 0.807D+00
 Coeff:      0.132D-02 0.813D-01 0.316D+00 0.601D+00
 Gap=     0.234 Goal=   None    Shift=    0.000
 RMSDP=1.76D-04 MaxDP=1.54D-02 DE=-5.29D-02 OVMax= 2.79D-02

 Cycle   5  Pass 1  IDiag  1:
 RMSU=  7.70D-05    CP:  9.82D-01  8.64D-01  6.26D-01  5.86D-01
 E= -1777.91452896039     Delta-E=       -0.012422130347 Rises=F Damp=F
 DIIS: error= 1.07D-03 at cycle   5 NSaved=   5.
 NSaved= 5 IEnMin= 5 EnMin= -1777.91452896039     IErMin= 5 ErrMin= 1.07D-03
 ErrMax= 1.07D-03  0.00D+00 EMaxC= 1.00D-01 BMatC= 1.41D-03 BMatP= 1.69D-02
 IDIUse=3 WtCom= 9.89D-01 WtEn= 1.07D-02
 Coeff-Com: -0.839D-03 0.156D-01 0.148D+00 0.352D+00 0.485D+00
 Coeff-En:   0.000D+00 0.000D+00 0.000D+00 0.000D+00 0.100D+01
 Coeff:     -0.830D-03 0.154D-01 0.146D+00 0.349D+00 0.491D+00
 Gap=     0.234 Goal=   None    Shift=    0.000
 RMSDP=4.84D-05 MaxDP=3.86D-03 DE=-1.24D-02 OVMax= 7.39D-03

 Cycle   6  Pass 1  IDiag  1:
 RMSU=  1.86D-05    CP:  9.82D-01  8.69D-01  6.19D-01  6.54D-01  4.89D-01
 E= -1777.91564296172     Delta-E=       -0.001114001325 Rises=F Damp=F
 DIIS: error= 1.95D-04 at cycle   6 NSaved=   6.
 NSaved= 6 IEnMin= 6 EnMin= -1777.91564296172     IErMin= 6 ErrMin= 1.95D-04
 ErrMax= 1.95D-04  0.00D+00 EMaxC= 1.00D-01 BMatC= 5.26D-05 BMatP= 1.41D-03
 IDIUse=3 WtCom= 9.98D-01 WtEn= 1.95D-03
 Coeff-Com: -0.507D-03 0.369D-03 0.417D-01 0.111D+00 0.232D+00 0.615D+00
 Coeff-En:   0.000D+00 0.000D+00 0.000D+00 0.000D+00 0.000D+00 0.100D+01
 Coeff:     -0.506D-03 0.368D-03 0.416D-01 0.111D+00 0.232D+00 0.616D+00
 Gap=     0.234 Goal=   None    Shift=    0.000
 RMSDP=9.65D-06 MaxDP=9.34D-04 DE=-1.11D-03 OVMax= 8.70D-04

 Cycle   7  Pass 1  IDiag  1:
 RMSU=  5.72D-06    CP:  9.82D-01  8.69D-01  6.20D-01  6.52D-01  5.34D-01
                    CP:  6.31D-01
 E= -1777.91568125533     Delta-E=       -0.000038293610 Rises=F Damp=F
 DIIS: error= 6.90D-05 at cycle   7 NSaved=   7.
 NSaved= 7 IEnMin= 7 EnMin= -1777.91568125533     IErMin= 7 ErrMin= 6.90D-05
 ErrMax= 6.90D-05  0.00D+00 EMaxC= 1.00D-01 BMatC= 5.21D-06 BMatP= 5.26D-05
 IDIUse=1 WtCom= 1.00D+00 WtEn= 0.00D+00
 Coeff-Com: -0.228D-03-0.592D-03 0.146D-01 0.408D-01 0.102D+00 0.340D+00
 Coeff-Com:  0.503D+00
 Coeff:     -0.228D-03-0.592D-03 0.146D-01 0.408D-01 0.102D+00 0.340D+00
 Coeff:      0.503D+00
 Gap=     0.234 Goal=   None    Shift=    0.000
 RMSDP=3.06D-06 MaxDP=3.07D-04 DE=-3.83D-05 OVMax= 3.18D-04

 Cycle   8  Pass 1  IDiag  1:
 RMSU=  1.55D-06    CP:  9.82D-01  8.69D-01  6.20D-01  6.53D-01  5.38D-01
                    CP:  6.82D-01  5.84D-01
 E= -1777.91568522711     Delta-E=       -0.000003971787 Rises=F Damp=F
 DIIS: error= 1.33D-05 at cycle   8 NSaved=   8.
 NSaved= 8 IEnMin= 8 EnMin= -1777.91568522711     IErMin= 8 ErrMin= 1.33D-05
 ErrMax= 1.33D-05  0.00D+00 EMaxC= 1.00D-01 BMatC= 2.80D-07 BMatP= 5.21D-06
 IDIUse=1 WtCom= 1.00D+00 WtEn= 0.00D+00
 Coeff-Com: -0.608D-04-0.280D-03 0.322D-02 0.910D-02 0.288D-01 0.107D+00
 Coeff-Com:  0.236D+00 0.617D+00
 Coeff:     -0.608D-04-0.280D-03 0.322D-02 0.910D-02 0.288D-01 0.107D+00
 Coeff:      0.236D+00 0.617D+00
 Gap=     0.234 Goal=   None    Shift=    0.000
 RMSDP=8.49D-07 MaxDP=7.25D-05 DE=-3.97D-06 OVMax= 1.02D-04

 Cycle   9  Pass 1  IDiag  1:
 RMSU=  6.03D-07    CP:  9.82D-01  8.69D-01  6.20D-01  6.53D-01  5.40D-01
                    CP:  6.82D-01  6.11D-01  6.44D-01
 E= -1777.91568539504     Delta-E=       -0.000000167921 Rises=F Damp=F
 DIIS: error= 5.39D-06 at cycle   9 NSaved=   9.
 NSaved= 9 IEnMin= 9 EnMin= -1777.91568539504     IErMin= 9 ErrMin= 5.39D-06
 ErrMax= 5.39D-06  0.00D+00 EMaxC= 1.00D-01 BMatC= 5.94D-08 BMatP= 2.80D-07
 IDIUse=1 WtCom= 1.00D+00 WtEn= 0.00D+00
 Coeff-Com: -0.780D-05-0.839D-04-0.260D-04-0.105D-03 0.357D-02 0.158D-01
 Coeff-Com:  0.672D-01 0.361D+00 0.553D+00
 Coeff:     -0.780D-05-0.839D-04-0.260D-04-0.105D-03 0.357D-02 0.158D-01
 Coeff:      0.672D-01 0.361D+00 0.553D+00
 Gap=     0.234 Goal=   None    Shift=    0.000
 RMSDP=3.28D-07 MaxDP=3.22D-05 DE=-1.68D-07 OVMax= 4.98D-05

 Cycle  10  Pass 1  IDiag  1:
 RMSU=  1.56D-07    CP:  9.82D-01  8.69D-01  6.20D-01  6.53D-01  5.40D-01
                    CP:  6.83D-01  6.20D-01  7.34D-01  6.01D-01
 E= -1777.91568543995     Delta-E=       -0.000000044914 Rises=F Damp=F
 DIIS: error= 2.65D-06 at cycle  10 NSaved=  10.
 NSaved=10 IEnMin=10 EnMin= -1777.91568543995     IErMin=10 ErrMin= 2.65D-06
 ErrMax= 2.65D-06  0.00D+00 EMaxC= 1.00D-01 BMatC= 3.99D-09 BMatP= 5.94D-08
 IDIUse=1 WtCom= 1.00D+00 WtEn= 0.00D+00
 Coeff-Com: -0.196D-05-0.325D-04-0.179D-03-0.518D-03 0.642D-03 0.350D-02
 Coeff-Com:  0.257D-01 0.173D+00 0.309D+00 0.489D+00
 Coeff:     -0.196D-05-0.325D-04-0.179D-03-0.518D-03 0.642D-03 0.350D-02
 Coeff:      0.257D-01 0.173D+00 0.309D+00 0.489D+00
 Gap=     0.234 Goal=   None    Shift=    0.000
 RMSDP=8.92D-08 MaxDP=1.38D-05 DE=-4.49D-08 OVMax= 1.89D-05

 Cycle  11  Pass 1  IDiag  1:
 RMSU=  5.89D-08    CP:  9.82D-01  8.69D-01  6.20D-01  6.53D-01  5.40D-01
                    CP:  6.83D-01  6.21D-01  7.39D-01  6.45D-01  6.17D-01
 E= -1777.91568544259     Delta-E=       -0.000000002641 Rises=F Damp=F
 DIIS: error= 1.13D-06 at cycle  11 NSaved=  11.
 NSaved=11 IEnMin=11 EnMin= -1777.91568544259     IErMin=11 ErrMin= 1.13D-06
 ErrMax= 1.13D-06  0.00D+00 EMaxC= 1.00D-01 BMatC= 4.56D-10 BMatP= 3.99D-09
 IDIUse=1 WtCom= 1.00D+00 WtEn= 0.00D+00
 Coeff-Com: -0.145D-06-0.216D-05-0.101D-03-0.280D-03-0.243D-03-0.918D-03
 Coeff-Com:  0.249D-02 0.343D-01 0.748D-01 0.273D+00 0.617D+00
 Coeff:     -0.145D-06-0.216D-05-0.101D-03-0.280D-03-0.243D-03-0.918D-03
 Coeff:      0.249D-02 0.343D-01 0.748D-01 0.273D+00 0.617D+00
 Gap=     0.234 Goal=   None    Shift=    0.000
 RMSDP=2.95D-08 MaxDP=4.95D-06 DE=-2.64D-09 OVMax= 7.29D-06

 Cycle  12  Pass 1  IDiag  1:
 RMSU=  1.67D-08    CP:  9.82D-01  8.69D-01  6.20D-01  6.53D-01  5.40D-01
                    CP:  6.83D-01  6.21D-01  7.43D-01  6.49D-01  7.04D-01
                    CP:  6.82D-01
 E= -1777.91568544293     Delta-E=       -0.000000000339 Rises=F Damp=F
 DIIS: error= 3.04D-07 at cycle  12 NSaved=  12.
 NSaved=12 IEnMin=12 EnMin= -1777.91568544293     IErMin=12 ErrMin= 3.04D-07
 ErrMax= 3.04D-07  0.00D+00 EMaxC= 1.00D-01 BMatC= 5.15D-11 BMatP= 4.56D-10
 IDIUse=1 WtCom= 1.00D+00 WtEn= 0.00D+00
 Coeff-Com: -0.103D-06 0.127D-05-0.483D-04-0.131D-03-0.185D-03-0.807D-03
 Coeff-Com: -0.343D-03 0.814D-02 0.222D-01 0.124D+00 0.360D+00 0.488D+00
 Coeff:     -0.103D-06 0.127D-05-0.483D-04-0.131D-03-0.185D-03-0.807D-03
 Coeff:     -0.343D-03 0.814D-02 0.222D-01 0.124D+00 0.360D+00 0.488D+00
 Gap=     0.234 Goal=   None    Shift=    0.000
 RMSDP=9.97D-09 MaxDP=1.22D-06 DE=-3.39D-10 OVMax= 2.15D-06

 Cycle  13  Pass 1  IDiag  1:
 RMSU=  6.60D-09    CP:  9.82D-01  8.69D-01  6.20D-01  6.53D-01  5.40D-01
                    CP:  6.83D-01  6.21D-01  7.44D-01  6.49D-01  7.07D-01
                    CP:  7.34D-01  6.00D-01
 E= -1777.91568544287     Delta-E=        0.000000000060 Rises=F Damp=F
 DIIS: error= 7.53D-08 at cycle  13 NSaved=  13.
 NSaved=13 IEnMin=12 EnMin= -1777.91568544293     IErMin=13 ErrMin= 7.53D-08
 ErrMax= 7.53D-08  0.00D+00 EMaxC= 1.00D-01 BMatC= 4.94D-12 BMatP= 5.15D-11
 IDIUse=1 WtCom= 1.00D+00 WtEn= 0.00D+00
 Coeff-Com: -0.104D-06 0.112D-05-0.907D-05-0.230D-04-0.553D-04-0.287D-03
 Coeff-Com: -0.641D-03-0.166D-02-0.118D-02 0.188D-01 0.894D-01 0.268D+00
 Coeff-Com:  0.628D+00
 Coeff:     -0.104D-06 0.112D-05-0.907D-05-0.230D-04-0.553D-04-0.287D-03
 Coeff:     -0.641D-03-0.166D-02-0.118D-02 0.188D-01 0.894D-01 0.268D+00
 Coeff:      0.628D+00
 Gap=     0.234 Goal=   None    Shift=    0.000
 RMSDP=3.26D-09 MaxDP=3.27D-07 DE= 6.00D-11 OVMax= 4.93D-07

 Error on total polarization charges =  0.05674
 SCF Done:  E(RB3LYP) =  -1777.91568544     A.U. after   13 cycles
            NFock= 13  Conv=0.33D-08     -V/T= 2.0092
 KE= 1.761643228479D+03 PE=-1.228484057119D+04 EE= 4.690491946544D+03
 SMD-CDS (non-electrostatic) energy       (kcal/mol) =      15.02
 (included in total energy above)
 Leave Link  502 at Tue Sep  1 14:39:57 2020, MaxMem=  2147483648 cpu:      2589.3
 (Enter /global/apps/Gaussian/09.d01/l601.exe)
 Copying SCF densities to generalized density rwf, IOpCl= 0 IROHF=0.

 **********************************************************************

            Population analysis using the SCF density.

 **********************************************************************

 Orbital symmetries:
       Occupied  (A) (A) (A) (A) (A) (A) (A) (A) (A) (A) (A) (A)
                 (A) (A) (A) (A) (A) (A) (A) (A) (A) (A) (A) (A)
                 (A) (A) (A) (A) (A) (A) (A) (A) (A) (A) (A) (A)
                 (A) (A) (A) (A) (A) (A) (A) (A) (A) (A) (A) (A)
                 (A) (A) (A) (A) (A) (A) (A) (A) (A) (A) (A) (A)
                 (A) (A) (A) (A) (A) (A) (A) (A) (A) (A) (A) (A)
                 (A) (A) (A) (A) (A) (A) (A) (A) (A) (A) (A) (A)
                 (A) (A) (A) (A) (A) (A) (A) (A) (A) (A) (A) (A)
                 (A) (A) (A) (A) (A) (A) (A) (A) (A) (A) (A) (A)
                 (A) (A) (A) (A) (A) (A) (A) (A) (A) (A) (A) (A)
                 (A) (A) (A) (A) (A) (A) (A) (A) (A) (A) (A) (A)
                 (A) (A) (A) (A) (A) (A) (A)
       Virtual   (A) (A) (A) (A) (A) (A) (A) (A) (A) (A) (A) (A)
                 (A) (A) (A) (A) (A) (A) (A) (A) (A) (A) (A) (A)
                 (A) (A) (A) (A) (A) (A) (A) (A) (A) (A) (A) (A)
                 (A) (A) (A) (A) (A) (A) (A) (A) (A) (A) (A) (A)
                 (A) (A) (A) (A) (A) (A) (A) (A) (A) (A) (A) (A)
                 (A) (A) (A) (A) (A) (A) (A) (A) (A) (A) (A) (A)
                 (A) (A) (A) (A) (A) (A) (A) (A) (A) (A) (A) (A)
                 (A) (A) (A) (A) (A) (A) (A) (A) (A) (A) (A) (A)
                 (A) (A) (A) (A) (A) (A) (A) (A) (A) (A) (A) (A)
                 (A) (A) (A) (A) (A) (A) (A) (A) (A) (A) (A) (A)
                 (A) (A) (A) (A) (A) (A) (A) (A) (A) (A) (A) (A)
                 (A) (A) (A) (A) (A) (A) (A) (A) (A) (A) (A) (A)
                 (A) (A) (A) (A) (A) (A) (A) (A) (A) (A) (A) (A)
                 (A) (A) (A) (A) (A) (A) (A) (A) (A) (A) (A) (A)
                 (A) (A) (A) (A) (A) (A) (A) (A) (A) (A) (A) (A)
                 (A) (A) (A) (A) (A) (A) (A) (A) (A) (A) (A) (A)
                 (A) (A) (A) (A) (A) (A) (A) (A) (A) (A) (A) (A)
                 (A) (A) (A) (A) (A) (A) (A) (A) (A) (A) (A) (A)
                 (A) (A) (A) (A) (A) (A) (A) (A) (A) (A) (A) (A)
                 (A) (A) (A) (A) (A) (A) (A) (A) (A) (A) (A) (A)
                 (A) (A) (A) (A) (A) (A) (A) (A) (A) (A) (A) (A)
                 (A) (A) (A) (A) (A) (A) (A) (A) (A) (A) (A) (A)
                 (A) (A) (A) (A) (A) (A) (A) (A) (A) (A) (A) (A)
                 (A) (A) (A) (A) (A) (A) (A) (A) (A) (A) (A) (A)
                 (A) (A) (A) (A) (A) (A) (A) (A) (A) (A) (A) (A)
                 (A) (A) (A) (A) (A) (A) (A) (A) (A) (A) (A) (A)
                 (A) (A) (A) (A) (A) (A) (A) (A) (A) (A) (A) (A)
                 (A) (A) (A) (A) (A) (A) (A) (A) (A) (A) (A) (A)
                 (A) (A) (A) (A) (A) (A) (A) (A) (A) (A) (A) (A)
                 (A) (A) (A) (A) (A) (A) (A) (A) (A) (A) (A) (A)
                 (A) (A) (A) (A) (A) (A) (A) (A) (A) (A) (A) (A)
                 (A) (A) (A) (A) (A) (A) (A) (A) (A) (A) (A) (A)
                 (A) (A) (A) (A) (A) (A) (A) (A) (A) (A) (A) (A)
                 (A) (A) (A) (A) (A) (A) (A) (A) (A) (A) (A) (A)
                 (A) (A) (A) (A) (A) (A) (A) (A) (A) (A) (A) (A)
                 (A) (A) (A) (A) (A) (A) (A) (A) (A) (A) (A) (A)
                 (A) (A) (A) (A) (A) (A) (A) (A) (A) (A) (A) (A)
                 (A) (A) (A) (A) (A) (A) (A) (A) (A) (A) (A) (A)
                 (A) (A) (A) (A) (A) (A) (A) (A) (A) (A) (A) (A)
                 (A) (A) (A) (A) (A) (A) (A) (A) (A) (A) (A) (A)
                 (A) (A) (A) (A) (A) (A) (A) (A) (A) (A) (A) (A)
                 (A) (A) (A) (A) (A) (A) (A) (A) (A) (A) (A) (A)
                 (A) (A) (A) (A) (A) (A) (A) (A) (A) (A) (A) (A)
                 (A) (A) (A) (A) (A) (A) (A) (A) (A) (A) (A) (A)
                 (A) (A) (A) (A) (A) (A) (A) (A) (A) (A) (A) (A)
                 (A) (A) (A) (A) (A) (A) (A) (A) (A) (A) (A) (A)
                 (A) (A) (A) (A) (A) (A) (A) (A) (A) (A) (A) (A)
                 (A) (A) (A) (A) (A) (A) (A) (A) (A) (A) (A) (A)
                 (A) (A) (A) (A) (A) (A) (A) (A) (A) (A) (A) (A)
                 (A) (A) (A) (A) (A) (A) (A) (A) (A) (A) (A) (A)
                 (A) (A) (A) (A) (A) (A)
 The electronic state is 1-A.
 Alpha  occ. eigenvalues --  -19.11902 -19.11835 -19.10691 -19.09546 -19.09416
 Alpha  occ. eigenvalues --  -19.08833 -19.07913 -19.07778 -19.05811 -14.37162
 Alpha  occ. eigenvalues --  -14.35942 -14.32219 -14.31608 -14.31239 -10.28488
 Alpha  occ. eigenvalues --  -10.27077 -10.25981 -10.25240 -10.25078 -10.24946
 Alpha  occ. eigenvalues --  -10.21226 -10.20488 -10.20260 -10.19432 -10.18245
 Alpha  occ. eigenvalues --  -10.18182 -10.17947 -10.17207 -10.16209 -10.16139
 Alpha  occ. eigenvalues --  -10.15549 -10.15354 -10.15224 -10.15136 -10.14008
 Alpha  occ. eigenvalues --   -1.03357  -1.02979  -1.02088  -1.00472  -0.99750
 Alpha  occ. eigenvalues --   -0.99454  -0.96614  -0.96513  -0.93842  -0.92583
 Alpha  occ. eigenvalues --   -0.88333  -0.88227  -0.87696  -0.87521  -0.77624
 Alpha  occ. eigenvalues --   -0.74338  -0.74196  -0.72023  -0.71659  -0.71252
 Alpha  occ. eigenvalues --   -0.70798  -0.66380  -0.65046  -0.64762  -0.64390
 Alpha  occ. eigenvalues --   -0.62794  -0.62320  -0.61182  -0.60251  -0.58269
 Alpha  occ. eigenvalues --   -0.54687  -0.54211  -0.54161  -0.53449  -0.52475
 Alpha  occ. eigenvalues --   -0.50812  -0.48954  -0.48245  -0.47319  -0.46748
 Alpha  occ. eigenvalues --   -0.46647  -0.46294  -0.44928  -0.44451  -0.44150
 Alpha  occ. eigenvalues --   -0.43952  -0.43548  -0.43368  -0.43054  -0.42727
 Alpha  occ. eigenvalues --   -0.42634  -0.42503  -0.42328  -0.42176  -0.42100
 Alpha  occ. eigenvalues --   -0.41644  -0.40875  -0.40600  -0.40078  -0.39670
 Alpha  occ. eigenvalues --   -0.38940  -0.38808  -0.38471  -0.38015  -0.37676
 Alpha  occ. eigenvalues --   -0.37265  -0.37209  -0.36865  -0.36305  -0.36189
 Alpha  occ. eigenvalues --   -0.35974  -0.35652  -0.35547  -0.35372  -0.35047
 Alpha  occ. eigenvalues --   -0.34939  -0.34883  -0.34632  -0.33899  -0.33653
 Alpha  occ. eigenvalues --   -0.33437  -0.32767  -0.32556  -0.31766  -0.31718
 Alpha  occ. eigenvalues --   -0.31494  -0.30290  -0.29908  -0.29252  -0.26836
 Alpha  occ. eigenvalues --   -0.26150  -0.25390  -0.24222  -0.23880  -0.23505
 Alpha  occ. eigenvalues --   -0.23075  -0.22995  -0.22471  -0.22167  -0.22015
 Alpha  occ. eigenvalues --   -0.21903  -0.21772  -0.21318  -0.20976
 Alpha virt. eigenvalues --    0.02426   0.04990   0.05461   0.05802   0.06011
 Alpha virt. eigenvalues --    0.06266   0.10162   0.10430   0.12257   0.12760
 Alpha virt. eigenvalues --    0.13020   0.13436   0.13690   0.14087   0.14379
 Alpha virt. eigenvalues --    0.15249   0.15550   0.16007   0.16446   0.16788
 Alpha virt. eigenvalues --    0.17070   0.17351   0.17980   0.18114   0.18286
 Alpha virt. eigenvalues --    0.18398   0.18757   0.18912   0.19085   0.19266
 Alpha virt. eigenvalues --    0.19483   0.19918   0.19969   0.20200   0.20385
 Alpha virt. eigenvalues --    0.20871   0.21020   0.21159   0.21500   0.21526
 Alpha virt. eigenvalues --    0.21625   0.21730   0.21945   0.22217   0.22603
 Alpha virt. eigenvalues --    0.22993   0.23216   0.23648   0.24139   0.24364
 Alpha virt. eigenvalues --    0.24650   0.25531   0.25725   0.26256   0.26725
 Alpha virt. eigenvalues --    0.26894   0.27151   0.27816   0.28020   0.28495
 Alpha virt. eigenvalues --    0.28963   0.29216   0.29641   0.29935   0.30106
 Alpha virt. eigenvalues --    0.31070   0.31458   0.32870   0.34706   0.35228
 Alpha virt. eigenvalues --    0.37303   0.37604   0.39219   0.39592   0.40394
 Alpha virt. eigenvalues --    0.41165   0.43982   0.45778   0.45807   0.47817
 Alpha virt. eigenvalues --    0.48801   0.50287   0.51506   0.52170   0.53168
 Alpha virt. eigenvalues --    0.53454   0.53775   0.54566   0.54739   0.55105
 Alpha virt. eigenvalues --    0.55465   0.55672   0.55855   0.56255   0.56334
 Alpha virt. eigenvalues --    0.57072   0.57207   0.57427   0.57917   0.58513
 Alpha virt. eigenvalues --    0.58757   0.58933   0.59303   0.60088   0.60174
 Alpha virt. eigenvalues --    0.61045   0.61103   0.61347   0.61751   0.62210
 Alpha virt. eigenvalues --    0.62238   0.63105   0.63419   0.63682   0.64417
 Alpha virt. eigenvalues --    0.64679   0.64908   0.65724   0.65820   0.66795
 Alpha virt. eigenvalues --    0.67249   0.67644   0.67917   0.68900   0.69120
 Alpha virt. eigenvalues --    0.69525   0.69677   0.70487   0.71222   0.72611
 Alpha virt. eigenvalues --    0.72878   0.73360   0.74446   0.74931   0.75171
 Alpha virt. eigenvalues --    0.75813   0.76836   0.77040   0.77552   0.78393
 Alpha virt. eigenvalues --    0.78695   0.79473   0.79742   0.80187   0.80432
 Alpha virt. eigenvalues --    0.81116   0.81302   0.81719   0.81943   0.82271
 Alpha virt. eigenvalues --    0.82521   0.83091   0.83229   0.83876   0.84693
 Alpha virt. eigenvalues --    0.85517   0.85882   0.86335   0.86644   0.86901
 Alpha virt. eigenvalues --    0.87160   0.87232   0.87554   0.87920   0.88268
 Alpha virt. eigenvalues --    0.88752   0.89017   0.89552   0.90290   0.90510
 Alpha virt. eigenvalues --    0.90917   0.90960   0.91179   0.91389   0.91661
 Alpha virt. eigenvalues --    0.92111   0.92805   0.92928   0.93380   0.93741
 Alpha virt. eigenvalues --    0.94151   0.94220   0.94970   0.95214   0.95294
 Alpha virt. eigenvalues --    0.95722   0.95958   0.96220   0.96494   0.96541
 Alpha virt. eigenvalues --    0.97725   0.97806   0.98563   0.98744   0.99489
 Alpha virt. eigenvalues --    1.00624   1.00855   1.01836   1.02475   1.02986
 Alpha virt. eigenvalues --    1.03625   1.04506   1.04591   1.05886   1.06377
 Alpha virt. eigenvalues --    1.06591   1.07622   1.08639   1.09135   1.09354
 Alpha virt. eigenvalues --    1.10547   1.11363   1.11518   1.12695   1.13030
 Alpha virt. eigenvalues --    1.13375   1.14359   1.15039   1.15303   1.15579
 Alpha virt. eigenvalues --    1.16882   1.18539   1.19247   1.20736   1.22165
 Alpha virt. eigenvalues --    1.22483   1.23373   1.24323   1.24605   1.25299
 Alpha virt. eigenvalues --    1.26113   1.27151   1.28352   1.28636   1.29087
 Alpha virt. eigenvalues --    1.30182   1.30774   1.31655   1.32241   1.32610
 Alpha virt. eigenvalues --    1.32766   1.33378   1.33776   1.34101   1.34277
 Alpha virt. eigenvalues --    1.35087   1.35614   1.36244   1.37830   1.38710
 Alpha virt. eigenvalues --    1.38904   1.39828   1.40019   1.40662   1.41495
 Alpha virt. eigenvalues --    1.41778   1.42920   1.43723   1.44440   1.44725
 Alpha virt. eigenvalues --    1.45409   1.46800   1.47070   1.47248   1.47863
 Alpha virt. eigenvalues --    1.49549   1.52651   1.54369   1.54825   1.55976
 Alpha virt. eigenvalues --    1.56178   1.56797   1.57736   1.57925   1.59007
 Alpha virt. eigenvalues --    1.60377   1.60776   1.62191   1.62935   1.63612
 Alpha virt. eigenvalues --    1.64394   1.65877   1.67036   1.67372   1.67556
 Alpha virt. eigenvalues --    1.68006   1.68683   1.69387   1.70564   1.71271
 Alpha virt. eigenvalues --    1.72169   1.72715   1.74074   1.74256   1.74421
 Alpha virt. eigenvalues --    1.75297   1.75755   1.75964   1.76721   1.77600
 Alpha virt. eigenvalues --    1.79366   1.80500   1.81177   1.81754   1.82099
 Alpha virt. eigenvalues --    1.82557   1.83000   1.83476   1.84167   1.84505
 Alpha virt. eigenvalues --    1.84850   1.85172   1.85376   1.85636   1.86152
 Alpha virt. eigenvalues --    1.87576   1.87785   1.88719   1.89538   1.90086
 Alpha virt. eigenvalues --    1.90437   1.90551   1.90720   1.91200   1.91360
 Alpha virt. eigenvalues --    1.91794   1.92090   1.92284   1.92827   1.93613
 Alpha virt. eigenvalues --    1.94069   1.95019   1.95451   1.95854   1.96842
 Alpha virt. eigenvalues --    1.97233   1.98028   1.98134   1.98959   2.00438
 Alpha virt. eigenvalues --    2.01039   2.02036   2.02964   2.03775   2.04785
 Alpha virt. eigenvalues --    2.05064   2.05872   2.06065   2.06094   2.06260
 Alpha virt. eigenvalues --    2.06559   2.06791   2.07049   2.07383   2.07545
 Alpha virt. eigenvalues --    2.07730   2.07926   2.08341   2.08811   2.08982
 Alpha virt. eigenvalues --    2.09135   2.09896   2.10078   2.10454   2.10913
 Alpha virt. eigenvalues --    2.11563   2.11628   2.11773   2.12275   2.12513
 Alpha virt. eigenvalues --    2.12846   2.13154   2.13332   2.14203   2.15112
 Alpha virt. eigenvalues --    2.15242   2.15377   2.16235   2.16262   2.16411
 Alpha virt. eigenvalues --    2.16820   2.17758   2.18372   2.19040   2.19830
 Alpha virt. eigenvalues --    2.20582   2.20636   2.21153   2.21554   2.22165
 Alpha virt. eigenvalues --    2.22277   2.23264   2.23774   2.24854   2.25385
 Alpha virt. eigenvalues --    2.25801   2.26755   2.28528   2.28996   2.29700
 Alpha virt. eigenvalues --    2.30414   2.30886   2.30940   2.31356   2.31813
 Alpha virt. eigenvalues --    2.33591   2.33654   2.34545   2.34788   2.36217
 Alpha virt. eigenvalues --    2.36434   2.37201   2.37707   2.39380   2.39576
 Alpha virt. eigenvalues --    2.40211   2.42130   2.42444   2.43326   2.44204
 Alpha virt. eigenvalues --    2.44370   2.44981   2.45349   2.45865   2.46496
 Alpha virt. eigenvalues --    2.46734   2.47241   2.48036   2.49010   2.49833
 Alpha virt. eigenvalues --    2.50710   2.51172   2.52287   2.52937   2.53137
 Alpha virt. eigenvalues --    2.53836   2.54291   2.55257   2.56737   2.56807
 Alpha virt. eigenvalues --    2.57280   2.58248   2.59343   2.60787   2.61316
 Alpha virt. eigenvalues --    2.61516   2.61841   2.62089   2.62922   2.63322
 Alpha virt. eigenvalues --    2.64564   2.65225   2.65934   2.66487   2.66870
 Alpha virt. eigenvalues --    2.67092   2.68252   2.68478   2.68788   2.69129
 Alpha virt. eigenvalues --    2.69464   2.69931   2.71557   2.71633   2.71953
 Alpha virt. eigenvalues --    2.72116   2.72199   2.72346   2.73150   2.73643
 Alpha virt. eigenvalues --    2.74370   2.74679   2.74795   2.74926   2.76108
 Alpha virt. eigenvalues --    2.76342   2.77624   2.78490   2.79608   2.82716
 Alpha virt. eigenvalues --    2.83525   2.84747   2.85140   2.85207   2.85953
 Alpha virt. eigenvalues --    2.86294   2.86710   2.87322   2.87526   2.87916
 Alpha virt. eigenvalues --    2.88312   2.89790   2.89938   2.90309   2.90463
 Alpha virt. eigenvalues --    2.90737   2.91165   2.91486   2.91678   2.92028
 Alpha virt. eigenvalues --    2.92245   2.92425   2.92888   2.93082   2.94834
 Alpha virt. eigenvalues --    2.95179   2.95808   2.96897   2.97436   3.00035
 Alpha virt. eigenvalues --    3.01581   3.02372   3.02951   3.03567   3.07230
 Alpha virt. eigenvalues --    3.07754   3.09298   3.10973   3.11690   3.11929
 Alpha virt. eigenvalues --    3.13015   3.15067   3.16444   3.16943   3.17933
 Alpha virt. eigenvalues --    3.19030   3.23113   3.23283   3.23619   3.24217
 Alpha virt. eigenvalues --    3.25117   3.25867   3.26308   3.26863   3.27215
 Alpha virt. eigenvalues --    3.28490   3.32692   3.33966   3.34084   3.35852
 Alpha virt. eigenvalues --    3.38210   3.41509   3.42434   3.43563   3.44365
 Alpha virt. eigenvalues --    3.44862   3.45048   3.45709   3.45969   3.46297
 Alpha virt. eigenvalues --    3.46808   3.47160   3.47366   3.47734   3.48154
 Alpha virt. eigenvalues --    3.48695   3.49479   3.49816   3.50078   3.50498
 Alpha virt. eigenvalues --    3.50935   3.51306   3.56356   3.56629   3.58522
 Alpha virt. eigenvalues --    3.60997   3.65399   3.65802   3.66077   3.71598
 Alpha virt. eigenvalues --    3.80003   3.87922   4.07019   4.07557   4.08743
 Alpha virt. eigenvalues --    4.09046   4.13343   4.14130   4.15538   4.19530
 Alpha virt. eigenvalues --    4.20521   4.21948   4.24344   4.25475   4.30474
 Alpha virt. eigenvalues --    4.30830   4.32423   4.34934   4.38660   4.40132
 Alpha virt. eigenvalues --    4.44700   4.49734   4.50265   4.51384   4.52045
 Alpha virt. eigenvalues --    4.53339   4.58280   4.60473   4.63829   4.65634
 Alpha virt. eigenvalues --    4.67536   4.68100   4.70660   4.71503   4.77904
 Alpha virt. eigenvalues --    4.79043
          Condensed to atoms (all electrons):
 Mulliken charges:
               1
     1  C    0.573091
     2  C   -0.266529
     3  N   -0.552351
     4  C    0.035663
     5  H    0.130061
     6  H    0.125332
     7  O   -0.621177
     8  C   -0.182570
     9  H    0.323738
    10  H    0.085555
    11  O   -0.618555
    12  H    0.119369
    13  H    0.124660
    14  H    0.122282
    15  H    0.120879
    16  C    0.748265
    17  C   -0.346024
    18  O   -0.548199
    19  O   -0.696890
    20  H    0.102608
    21  H    0.112156
    22  H    0.110772
    23  C   -0.084149
    24  H    0.105532
    25  H    0.089826
    26  H    0.113001
    27  N   -0.508473
    28  C    0.298109
    29  C    0.005746
    30  N   -0.550907
    31  H    0.184273
    32  C    0.268636
    33  H    0.150576
    34  C   -0.248666
    35  C   -0.342135
    36  H    0.114491
    37  H    0.129585
    38  H    0.111440
    39  H    0.107355
    40  H    0.124860
    41  C   -0.413299
    42  C    0.551501
    43  H    0.134634
    44  H    0.132467
    45  H    0.138174
    46  N   -0.540226
    47  O   -0.612051
    48  C   -0.185471
    49  H    0.323325
    50  H    0.123790
    51  H    0.117200
    52  H    0.124635
    53  C    0.596038
    54  C   -0.262127
    55  O   -0.638699
    56  O   -0.592006
    57  C   -0.327296
    58  H    0.129177
    59  H    0.121562
    60  H    0.095866
    61  H    0.114583
    62  H    0.119796
    63  N   -0.540229
    64  C   -0.189832
    65  C    0.540617
    66  H    0.302589
    67  H    0.123060
    68  H    0.120861
    69  H    0.137152
    70  C   -0.407996
    71  O   -0.585939
    72  H    0.139803
    73  H    0.141385
    74  H    0.121749
    75  O   -0.694803
    76  H    0.322534
    77  H    0.355192
    78  H    0.396871
    79  H    0.394178
 Sum of Mulliken charges =  -1.00000
 Mulliken charges with hydrogens summed into heavy atoms:
               1
     1  C    0.573091
     2  C   -0.011136
     3  N   -0.228613
     4  C    0.240587
     7  O   -0.621177
     8  C    0.185250
    11  O   -0.618555
    16  C    0.748265
    17  C   -0.020488
    18  O   -0.548199
    19  O   -0.696890
    23  C    0.224210
    27  N   -0.114294
    28  C    0.482382
    29  C    0.156321
    30  N   -0.154036
    32  C    0.268636
    34  C   -0.004590
    35  C    0.001521
    41  C   -0.008024
    42  C    0.551501
    46  N   -0.216902
    47  O   -0.612051
    48  C    0.180155
    53  C    0.596038
    54  C   -0.011388
    55  O   -0.638699
    56  O   -0.592006
    57  C    0.002949
    63  N   -0.237640
    64  C    0.191241
    65  C    0.540617
    70  C   -0.005059
    71  O   -0.585939
    75  O   -0.017077
 Electronic spatial extent (au):  <R**2>=          28386.5241
 Charge=             -1.0000 electrons
 Dipole moment (field-independent basis, Debye):
    X=              6.2020    Y=              4.9573    Z=              6.2085  Tot=             10.0790
 Quadrupole moment (field-independent basis, Debye-Ang):
   XX=           -378.6677   YY=           -291.8928   ZZ=           -228.4905
   XY=              3.4525   XZ=             -1.3018   YZ=              1.3934
 Traceless Quadrupole moment (field-independent basis, Debye-Ang):
   XX=            -78.9841   YY=              7.7909   ZZ=             71.1932
   XY=              3.4525   XZ=             -1.3018   YZ=              1.3934
 Octapole moment (field-independent basis, Debye-Ang**2):
  XXX=            462.7811  YYY=            -25.1975  ZZZ=             71.4562  XYY=            158.8418
  XXY=            367.5070  XXZ=             -7.6604  XZZ=            -32.8068  YZZ=             16.6457
  YYZ=            132.1510  XYZ=           -107.7313
 Hexadecapole moment (field-independent basis, Debye-Ang**3):
 XXXX=         -34536.5571 YYYY=          -7025.2697 ZZZZ=          -3241.8704 XXXY=          -1859.8590
 XXXZ=            -47.8517 YYYX=            292.6796 YYYZ=            146.9455 ZZZX=             69.7350
 ZZZY=           -142.5567 XXYY=          -7986.7491 XXZZ=          -5352.5817 YYZZ=          -1861.2317
 XXYZ=            237.8877 YYXZ=           -177.9467 ZZXY=            367.5760
 N-N= 4.054789710723D+03 E-N=-1.228484056273D+04  KE= 1.761643228479D+03
 No NMR shielding tensors so no spin-rotation constants.
 Leave Link  601 at Tue Sep  1 14:39:59 2020, MaxMem=  2147483648 cpu:        23.1
 (Enter /global/apps/Gaussian/09.d01/l9999.exe)
 1\1\GINC-C27-3\SP\RB3LYP\6-31G(d,p)\C21H44N5O9(1-)\BENTESIRINBARGE\01-
 Sep-2020\0\\#p b3lyp/6-31g(d,p) scrf=(read,smd) empiricaldispersion=gd
 3\\Title Card Required\\-1,1\C,0,-3.839584,3.420095,-1.233689\C,0,-2.5
 98433,3.377104,-0.332195\N,0,-4.728983,2.403862,-1.148825\C,0,-2.44295
 5,2.245074,0.681187\H,0,-1.726265,3.393208,-0.996106\H,0,-2.595894,4.3
 40709,0.19229\O,0,-4.002585,4.384608,-1.986333\C,0,-5.932169,2.450208,
 -1.961205\H,0,-4.558869,1.57242,-0.56234\H,0,-1.678517,2.529174,1.4214
 49\O,0,-2.023771,1.043857,0.041922\H,0,-3.378226,2.06083,1.21949\H,0,-
 5.687305,2.562901,-3.023214\H,0,-6.566896,3.300005,-1.683135\H,0,-6.48
 9694,1.523056,-1.814196\C,0,-2.964501,-0.201572,0.155581\C,0,-2.743771
 ,-0.891377,-1.18707\O,0,-2.292601,-1.0401,1.133052\O,0,-4.172593,0.144
 729,0.46063\H,0,-1.687397,-1.115965,-1.357426\H,0,-3.316898,-1.821609,
 -1.202089\H,0,-3.10793,-0.23141,-1.976682\C,0,-2.560662,-0.681242,2.47
 777\H,0,-2.166743,-1.485719,3.106683\H,0,-2.060426,0.260171,2.756081\H
 ,0,-3.634503,-0.563894,2.655028\N,0,0.448468,0.644755,0.771723\C,0,1.3
 84036,1.369617,0.153452\C,0,1.053342,-0.03183,1.809307\N,0,2.562684,1.
 183617,0.74781\H,0,1.205456,2.006318,-0.698532\C,0,2.388043,0.301118,1
 .800448\H,0,0.49255,-0.694345,2.447847\C,0,3.525314,-0.153181,2.665177
 \C,0,4.318534,1.000444,3.30972\H,0,3.113923,-0.806792,3.442436\H,0,4.2
 09616,-0.770651,2.071547\H,0,5.159224,0.600459,3.884488\H,0,3.686172,1
 .586354,3.985646\H,0,4.713659,1.675426,2.54634\C,0,-7.484626,-0.925753
 ,-0.214197\C,0,-6.932715,-2.285274,0.211904\H,0,-6.776636,-0.110514,-0
 .047662\H,0,-8.41003,-0.733192,0.335632\H,0,-7.7409,-0.97048,-1.277717
 \N,0,-5.634485,-2.276568,0.592674\O,0,-7.629536,-3.302437,0.190583\C,0
 ,-4.962743,-3.50131,0.985169\H,0,-5.104897,-1.393712,0.583758\H,0,-5.1
 01442,-4.280752,0.228167\H,0,-5.354289,-3.893538,1.932687\H,0,-3.89851
 5,-3.281438,1.097319\C,0,5.645129,1.39403,-0.116923\C,0,7.101263,1.863
 404,-0.145949\O,0,4.778545,2.28516,0.162972\O,0,5.38665,0.182225,-0.33
 4876\C,0,8.081481,0.837679,-0.710146\H,0,7.365124,2.128163,0.886663\H,
 0,7.130864,2.805015,-0.705846\H,0,9.109101,1.216258,-0.680473\H,0,7.83
 7281,0.592803,-1.748291\H,0,8.038691,-0.095663,-0.142706\N,0,3.560078,
 -1.784164,-1.373008\C,0,2.116245,-1.875417,-1.242243\C,0,4.226554,-2.5
 44622,-2.298807\H,0,4.031799,-0.957343,-1.002865\H,0,1.821922,-1.65741
 ,-0.21353\H,0,1.592123,-1.178062,-1.909986\H,0,1.805472,-2.887581,-1.5
 04287\C,0,5.720455,-2.267745,-2.386623\O,0,3.678327,-3.419296,-2.96529
 5\H,0,5.930753,-1.195338,-2.397726\H,0,6.218636,-2.671327,-1.49919\H,0
 ,6.112019,-2.751286,-3.281976\O,0,5.737287,-2.233768,0.956897\H,0,4.94
 1919,-2.539128,0.496711\H,0,5.853667,-1.347858,0.560592\H,0,3.536444,1
 .663168,0.443768\H,0,-0.585717,0.661526,0.498299\\Version=EM64L-G09Rev
 D.01\State=1-A\HF=-1777.9156854\RMSD=3.260e-09\Dipole=2.4400623,1.9503
 587,2.4426062\Quadrupole=-58.7227161,5.7923368,52.9303794,2.5668172,-0
 .9678869,1.0359765\PG=C01 [X(C21H44N5O9)]\\@


 When I told the people of Northern Ireland that I was
 an atheist, a woman in the audience stood up and said,
 "Yes, but is it the God of the Catholics or the God
 of the Protestants in whom you don't believe?"
                               -- Quentin Crisp
 Job cpu time:       0 days  0 hours 45 minutes 22.4 seconds.
 File lengths (MBytes):  RWF=    827 Int=      0 D2E=      0 Chk=     22 Scr=      1
 Normal termination of Gaussian 09 at Tue Sep  1 14:39:59 2020.
