 Entering Gaussian System, Link 0=g16
 Initial command:
 /cluster/software/Gaussian/g16_C.01/l1.exe "/cluster/work/users/gvi022/925880/Gau-131761.inp" -scrdir="/cluster/work/users/gvi022/925880/"
 Entering Link 1 = /cluster/software/Gaussian/g16_C.01/l1.exe PID=    131765.
  
 Copyright (c) 1988-2019, Gaussian, Inc.  All Rights Reserved.
  
 This is part of the Gaussian(R) 16 program.  It is based on
 the Gaussian(R) 09 system (copyright 2009, Gaussian, Inc.),
 the Gaussian(R) 03 system (copyright 2003, Gaussian, Inc.),
 the Gaussian(R) 98 system (copyright 1998, Gaussian, Inc.),
 the Gaussian(R) 94 system (copyright 1995, Gaussian, Inc.),
 the Gaussian 92(TM) system (copyright 1992, Gaussian, Inc.),
 the Gaussian 90(TM) system (copyright 1990, Gaussian, Inc.),
 the Gaussian 88(TM) system (copyright 1988, Gaussian, Inc.),
 the Gaussian 86(TM) system (copyright 1986, Carnegie Mellon
 University), and the Gaussian 82(TM) system (copyright 1983,
 Carnegie Mellon University). Gaussian is a federally registered
 trademark of Gaussian, Inc.
  
 This software contains proprietary and confidential information,
 including trade secrets, belonging to Gaussian, Inc.
  
 This software is provided under written license and may be
 used, copied, transmitted, or stored only in accord with that
 written license.
  
 The following legend is applicable only to US Government
 contracts under FAR:
  
                    RESTRICTED RIGHTS LEGEND
  
 Use, reproduction and disclosure by the US Government is
 subject to restrictions as set forth in subparagraphs (a)
 and (c) of the Commercial Computer Software - Restricted
 Rights clause in FAR 52.227-19.
  
 Gaussian, Inc.
 340 Quinnipiac St., Bldg. 40, Wallingford CT 06492
  
  
 ---------------------------------------------------------------
 Warning -- This program may not be used in any manner that
 competes with the business of Gaussian, Inc. or will provide
 assistance to any competitor of Gaussian, Inc.  The licensee
 of this program is prohibited from giving any competitor of
 Gaussian, Inc. access to this program.  By using this program,
 the user acknowledges that Gaussian, Inc. is engaged in the
 business of creating and licensing software in the field of
 computational chemistry and represents and warrants to the
 licensee that it is not a competitor of Gaussian, Inc. and that
 it will not use this program in any manner prohibited above.
 ---------------------------------------------------------------
  

 Cite this work as:
 Gaussian 16, Revision C.01,
 M. J. Frisch, G. W. Trucks, H. B. Schlegel, G. E. Scuseria, 
 M. A. Robb, J. R. Cheeseman, G. Scalmani, V. Barone, 
 G. A. Petersson, H. Nakatsuji, X. Li, M. Caricato, A. V. Marenich, 
 J. Bloino, B. G. Janesko, R. Gomperts, B. Mennucci, H. P. Hratchian, 
 J. V. Ortiz, A. F. Izmaylov, J. L. Sonnenberg, D. Williams-Young, 
 F. Ding, F. Lipparini, F. Egidi, J. Goings, B. Peng, A. Petrone, 
 T. Henderson, D. Ranasinghe, V. G. Zakrzewski, J. Gao, N. Rega, 
 G. Zheng, W. Liang, M. Hada, M. Ehara, K. Toyota, R. Fukuda, 
 J. Hasegawa, M. Ishida, T. Nakajima, Y. Honda, O. Kitao, H. Nakai, 
 T. Vreven, K. Throssell, J. A. Montgomery, Jr., J. E. Peralta, 
 F. Ogliaro, M. J. Bearpark, J. J. Heyd, E. N. Brothers, K. N. Kudin, 
 V. N. Staroverov, T. A. Keith, R. Kobayashi, J. Normand, 
 K. Raghavachari, A. P. Rendell, J. C. Burant, S. S. Iyengar, 
 J. Tomasi, M. Cossi, J. M. Millam, M. Klene, C. Adamo, R. Cammi, 
 J. W. Ochterski, R. L. Martin, K. Morokuma, O. Farkas, 
 J. B. Foresman, and D. J. Fox, Gaussian, Inc., Wallingford CT, 2019.
 
 ******************************************
 Gaussian 16:  ES64L-G16RevC.01  3-Jul-2019
                13-Nov-2020 
 ******************************************
 %LindaWorkers=cib30-3:2
 %NProcShared=16
 Will use up to   16 processors via shared memory.
 %mem=16GB
 SetLPE:    new flags="-opt 'Tsnet.Node.lindarsharg: ssh' -mp 2 -nodelist 'cib30-3' -opt 'Tsnet.cib30-3.speedfactor: 2' -env GAUSS_MDEF=2147483648 -env GAUSS_EXEDIR="/cluster/software/Gaussian/g16_C.01""
 Will use up to    2 processors via Linda.
 --------------------------------------------------------------
 #p freq=noraman scrf=(iefpcm,solvent=ethanol) b3lyp/6-31g(d,p)
 --------------------------------------------------------------
 1/10=4,30=1,38=1/1,3;
 2/12=2,17=6,18=5,40=1/2;
 3/5=1,6=6,7=101,11=2,25=1,30=1,70=2201,71=2,72=4,74=-5,140=1/1,2,3;
 4//1;
 5/5=2,38=5,53=4,98=1/2;
 8/6=4,10=90,11=11/1;
 11/6=1,8=1,9=11,15=111,16=1/1,2,10;
 10/6=1/2;
 6/7=2,8=2,9=2,10=2,28=1/1;
 7/8=1,10=1,25=1/1,2,3,16;
 1/10=4,30=1/3;
 99//99;
 Leave Link    1 at Fri Nov 13 17:04:01 2020, MaxMem=  2147483648 cpu:               0.9 elap:               0.1
 (Enter /cluster/software/Gaussian/g16_C.01/l101.exe)
 -------------------
 Title Card Required
 -------------------
 Symbolic Z-matrix:
 Charge =  0 Multiplicity = 1
 C                    -1.22498  -0.22185   0.00001 
 H                    -1.29776  -0.85891  -0.88716 
 H                    -1.29774  -0.85892   0.88718 
 H                    -2.07409   0.46862   0.00003 
 C                     0.08523   0.54713   0. 
 H                     0.139     1.19848   0.88586 
 H                     0.13898   1.19847  -0.88586 
 O                     1.15574  -0.39971  0. 
 H                     1.9842    0.09817  -0.00011 
 
 ITRead=  0  0  0  0  0  0  0  0  0
 MicOpt= -1 -1 -1 -1 -1 -1 -1 -1 -1
 NAtoms=      9 NQM=        9 NQMF=       0 NMMI=      0 NMMIF=      0
                NMic=       0 NMicF=      0.
                    Isotopes and Nuclear Properties:
 (Nuclear quadrupole moments (NQMom) in fm**2, nuclear magnetic moments (NMagM)
  in nuclear magnetons)

  Atom         1           2           3           4           5           6           7           8           9
 IAtWgt=          12           1           1           1          12           1           1          16           1
 AtmWgt=  12.0000000   1.0078250   1.0078250   1.0078250  12.0000000   1.0078250   1.0078250  15.9949146   1.0078250
 NucSpn=           0           1           1           1           0           1           1           0           1
 AtZEff=  -0.0000000  -0.0000000  -0.0000000  -0.0000000  -0.0000000  -0.0000000  -0.0000000  -0.0000000  -0.0000000
 NQMom=    0.0000000   0.0000000   0.0000000   0.0000000   0.0000000   0.0000000   0.0000000   0.0000000   0.0000000
 NMagM=    0.0000000   2.7928460   2.7928460   2.7928460   0.0000000   2.7928460   2.7928460   0.0000000   2.7928460
 AtZNuc=   6.0000000   1.0000000   1.0000000   1.0000000   6.0000000   1.0000000   1.0000000   8.0000000   1.0000000
 Leave Link  101 at Fri Nov 13 17:04:01 2020, MaxMem=  2147483648 cpu:               1.2 elap:               0.1
 (Enter /cluster/software/Gaussian/g16_C.01/l103.exe)

 GradGradGradGradGradGradGradGradGradGradGradGradGradGradGradGradGradGrad
 Berny optimization.
 Initialization pass.
 Trust Radius=3.00D-01 FncErr=1.00D-07 GrdErr=1.00D-07 EigMax=2.50D+02 EigMin=1.00D-04
 Number of steps in this run=      2 maximum allowed number of steps=      2.
 GradGradGradGradGradGradGradGradGradGradGradGradGradGradGradGradGradGrad

 Leave Link  103 at Fri Nov 13 17:04:02 2020, MaxMem=  2147483648 cpu:               0.3 elap:               0.0
 (Enter /cluster/software/Gaussian/g16_C.01/l202.exe)
                          Input orientation:                          
 ---------------------------------------------------------------------
 Center     Atomic      Atomic             Coordinates (Angstroms)
 Number     Number       Type             X           Y           Z
 ---------------------------------------------------------------------
      1          6           0       -1.224982   -0.221845    0.000013
      2          1           0       -1.297761   -0.858905   -0.887158
      3          1           0       -1.297737   -0.858917    0.887178
      4          1           0       -2.074089    0.468615    0.000031
      5          6           0        0.085234    0.547134    0.000002
      6          1           0        0.138995    1.198478    0.885861
      7          1           0        0.138983    1.198473   -0.885861
      8          8           0        1.155737   -0.399706   -0.000003
      9          1           0        1.984203    0.098171   -0.000113
 ---------------------------------------------------------------------
                    Distance matrix (angstroms):
                    1          2          3          4          5
     1  C    0.000000
     2  H    1.094630   0.000000
     3  H    1.094630   1.774336   0.000000
     4  H    1.094403   1.775415   1.775414   0.000000
     5  C    1.519209   2.162562   2.162561   2.160750   0.000000
     6  H    2.159277   3.072570   2.509397   2.493017   1.100857
     7  H    2.159277   2.509390   3.072570   2.493027   1.100856
     8  O    2.387354   2.649068   2.649056   3.344512   1.429155
     9  H    3.225101   3.531874   3.531916   4.075164   1.951320
                    6          7          8          9
     6  H    0.000000
     7  H    1.771722   0.000000
     8  O    2.091103   2.091102   0.000000
     9  H    2.323880   2.323801   0.966560   0.000000
 Stoichiometry    C2H6O
 Framework group  C1[X(C2H6O)]
 Deg. of freedom    21
 Full point group                 C1      NOp   1
 Largest Abelian subgroup         C1      NOp   1
 Largest concise Abelian subgroup C1      NOp   1
                         Standard orientation:                         
 ---------------------------------------------------------------------
 Center     Atomic      Atomic             Coordinates (Angstroms)
 Number     Number       Type             X           Y           Z
 ---------------------------------------------------------------------
      1          6           0       -1.224982   -0.221845    0.000013
      2          1           0       -1.297761   -0.858905   -0.887158
      3          1           0       -1.297737   -0.858917    0.887178
      4          1           0       -2.074089    0.468615    0.000031
      5          6           0        0.085234    0.547134    0.000002
      6          1           0        0.138995    1.198478    0.885861
      7          1           0        0.138983    1.198473   -0.885861
      8          8           0        1.155737   -0.399706   -0.000003
      9          1           0        1.984203    0.098171   -0.000113
 ---------------------------------------------------------------------
 Rotational constants (GHZ):          35.0625859           9.3047808           8.1001819
 Leave Link  202 at Fri Nov 13 17:04:03 2020, MaxMem=  2147483648 cpu:               0.1 elap:               0.0
 (Enter /cluster/software/Gaussian/g16_C.01/l301.exe)
 Standard basis: 6-31G(d,p) (6D, 7F)
 Ernie: Thresh=  0.10000D-02 Tol=  0.10000D-05 Strict=F.
 There are    75 symmetry adapted cartesian basis functions of A   symmetry.
 There are    75 symmetry adapted basis functions of A   symmetry.
    75 basis functions,   126 primitive gaussians,    75 cartesian basis functions
    13 alpha electrons       13 beta electrons
       nuclear repulsion energy        81.5408970207 Hartrees.
 IExCor=  402 DFT=T Ex+Corr=B3LYP ExCW=0 ScaHFX=  0.200000
 ScaDFX=  0.800000  0.720000  1.000000  0.810000 ScalE2=  1.000000  1.000000
 IRadAn=      5 IRanWt=     -1 IRanGd=            0 ICorTp=0 IEmpDi=  4
 NAtoms=    9 NActive=    9 NUniq=    9 SFac= 1.00D+00 NAtFMM=   60 NAOKFM=F Big=F
 Integral buffers will be    131072 words long.
 Raffenetti 2 integral format.
 Two-electron integral symmetry is turned on.
 Force inversion solution in PCM.
 ------------------------------------------------------------------------------
 Polarizable Continuum Model (PCM)
 =================================
 Model                : PCM.
 Atomic radii         : UFF (Universal Force Field).
 Polarization charges : Total charges.
 Charge compensation  : None.
 Solution method      : Matrix inversion.
 Cavity type          : Scaled VdW (van der Waals Surface) (Alpha=1.100).
 Cavity algorithm     : GePol (No added spheres)
                        Default sphere list used, NSphG=    9.
                        Lebedev-Laikov grids with approx.  5.0 points / Ang**2.
                        Smoothing algorithm: York/Karplus (Gamma=1.0000).
                        Polarization charges: spherical gaussians, with
                                              point-specific exponents (IZeta= 3).
                        Self-potential: point-specific (ISelfS= 7).
                        Self-field    : sphere-specific E.n sum rule (ISelfD= 2).
 1st derivatives      : Analytical E(r).r(x)/FMM algorithm (CHGder, D1EAlg=3).
                        Cavity 1st derivative terms included.
 2nd derivatives      : Analytical E(r).r(xy)/FMM algorithm (CHGder, D2EAlg=3).
                        Cavity 2nd derivative terms included.
 Solvent              : Ethanol, Eps=  24.852000 Eps(inf)=   1.852593
 ------------------------------------------------------------------------------
 Spheres list:
 ISph  on   Nord     Re0    Alpha      Xe            Ye            Ze
    1   C      1    1.9255  1.100     -1.224982     -0.221845      0.000013
    2   H      2    1.4430  1.100     -1.297761     -0.858905     -0.887158
    3   H      3    1.4430  1.100     -1.297737     -0.858917      0.887178
    4   H      4    1.4430  1.100     -2.074089      0.468615      0.000031
    5   C      5    1.9255  1.100      0.085234      0.547134      0.000002
    6   H      6    1.4430  1.100      0.138995      1.198478      0.885861
    7   H      7    1.4430  1.100      0.138983      1.198473     -0.885861
    8   O      8    1.7500  1.100      1.155737     -0.399706     -0.000003
    9   H      9    1.4430  1.100      1.984203      0.098171     -0.000113
 ------------------------------------------------------------------------------
 GePol: Number of generator spheres                  =       9
 GePol: Total number of spheres                      =       9
 GePol: Number of exposed spheres                    =       9 (100.00%)
 GePol: Number of points                             =     816
 GePol: Average weight of points                     =       0.13
 GePol: Minimum weight of points                     =   0.53D-09
 GePol: Maximum weight of points                     =    0.20577
 GePol: Number of points with low weight             =      46
 GePol: Fraction of low-weight points (<1% of avg)   =       5.64%
 GePol: Cavity surface area                          =    109.840 Ang**2
 GePol: Cavity volume                                =     91.415 Ang**3
 Leave Link  301 at Fri Nov 13 17:04:03 2020, MaxMem=  2147483648 cpu:               1.0 elap:               0.1
 (Enter /cluster/software/Gaussian/g16_C.01/linda-exe/../l302.exel)
 NPDir=0 NMtPBC=     1 NCelOv=     1 NCel=       1 NClECP=     1 NCelD=      1
         NCelK=      1 NCelE2=     1 NClLst=     1 CellRange=     0.0.
 One-electron integrals computed using PRISM.
 One-electron integral symmetry used in STVInt
 NBasis=    75 RedAO= T EigKep=  5.77D-03  NBF=    75
 NBsUse=    75 1.00D-06 EigRej= -1.00D+00 NBFU=    75
 Precomputing XC quadrature grid using
 IXCGrd= 4 IRadAn=           5 IRanWt=          -1 IRanGd=           0 AccXCQ= 0.00D+00.
 Generated NRdTot=       0 NPtTot=           0 NUsed=           0 NTot=          32
 NSgBfM=    75    75    75    75    75 MxSgAt=     9 MxSgA2=     9.
 Leave Link  302 at Fri Nov 13 17:04:05 2020, MaxMem=  2147483648 cpu:               2.4 elap:               0.2
 (Enter /cluster/software/Gaussian/g16_C.01/l303.exe)
 DipDrv:  MaxL=1.
 Leave Link  303 at Fri Nov 13 17:04:06 2020, MaxMem=  2147483648 cpu:               0.3 elap:               0.0
 (Enter /cluster/software/Gaussian/g16_C.01/linda-exe/../l401.exel)
 ExpMin= 1.61D-01 ExpMax= 5.48D+03 ExpMxC= 8.25D+02 IAcc=3 IRadAn=         5 AccDes= 0.00D+00
 Harris functional with IExCor=  402 and IRadAn=       5 diagonalized for initial guess.
 HarFok:  IExCor=  402 AccDes= 0.00D+00 IRadAn=         5 IDoV= 1 UseB2=F ITyADJ=14
 ICtDFT=  3500011 ScaDFX=  1.000000  1.000000  1.000000  1.000000
 FoFCou: FMM=F IPFlag=           0 FMFlag=      100000 FMFlg1=           0
         NFxFlg=           0 DoJE=T BraDBF=F KetDBF=T FulRan=T
         wScrn=  0.000000 ICntrl=       500 IOpCl=  0 I1Cent=   200000004 NGrid=           0
         NMat0=    1 NMatS0=      1 NMatT0=    0 NMatD0=    1 NMtDS0=    0 NMtDT0=    0
 Petite list used in FoFCou.
 Harris En= -155.090410252058    
 JPrj=0 DoOrth=F DoCkMO=F.
 Leave Link  401 at Fri Nov 13 17:04:07 2020, MaxMem=  2147483648 cpu:               3.5 elap:               0.3
 (Enter /cluster/software/Gaussian/g16_C.01/linda-exe/../l502.exel)
 Keep R1 ints in memory in canonical form, NReq=18426890.
 FoFCou: FMM=F IPFlag=           0 FMFlag=           0 FMFlg1=           0
         NFxFlg=           0 DoJE=F BraDBF=F KetDBF=F FulRan=T
         wScrn=  0.000000 ICntrl=       600 IOpCl=  0 I1Cent=           0 NGrid=           0
         NMat0=    1 NMatS0=   2850 NMatT0=    0 NMatD0=    1 NMtDS0=    0 NMtDT0=    0
 Symmetry not used in FoFCou.
 Two-electron integral symmetry not used.
 Closed shell SCF:
 Using DIIS extrapolation, IDIIS=  1040.
 NGot=  2147483648 LenX=  2143407316 LenY=  2143401250
 Requested convergence on RMS density matrix=1.00D-08 within 128 cycles.
 Requested convergence on MAX density matrix=1.00D-06.
 Requested convergence on             energy=1.00D-06.
 No special actions if energy rises.

 Cycle   1  Pass 1  IDiag  1:
 Inv3:  Mode=1 IEnd=     1997568.
 Iteration    1 A*A^-1 deviation from unit magnitude is 2.66D-15 for    224.
 Iteration    1 A*A^-1 deviation from orthogonality  is 2.00D-15 for    664    364.
 Iteration    1 A^-1*A deviation from unit magnitude is 3.11D-15 for    228.
 Iteration    1 A^-1*A deviation from orthogonality  is 1.51D-15 for    372    322.
 E= -154.925904139167    
 DIIS: error= 2.95D-02 at cycle   1 NSaved=   1.
 NSaved= 1 IEnMin= 1 EnMin= -154.925904139167     IErMin= 1 ErrMin= 2.95D-02
 ErrMax= 2.95D-02  0.00D+00 EMaxC= 1.00D-01 BMatC= 1.30D-01 BMatP= 1.30D-01
 IDIUse=3 WtCom= 7.05D-01 WtEn= 2.95D-01
 Coeff-Com:  0.100D+01
 Coeff-En:   0.100D+01
 Coeff:      0.100D+01
 Gap=     0.300 Goal=   None    Shift=    0.000
 GapD=    0.300 DampG=1.000 DampE=0.500 DampFc=0.5000 IDamp=-1.
 Damping current iteration by 5.00D-01
 RMSDP=9.54D-03 MaxDP=1.35D-01              OVMax= 1.70D-01

 Cycle   2  Pass 1  IDiag  1:
 E= -154.979876814401     Delta-E=       -0.053972675233 Rises=F Damp=T
 DIIS: error= 7.81D-03 at cycle   2 NSaved=   2.
 NSaved= 2 IEnMin= 2 EnMin= -154.979876814401     IErMin= 2 ErrMin= 7.81D-03
 ErrMax= 7.81D-03  0.00D+00 EMaxC= 1.00D-01 BMatC= 6.20D-03 BMatP= 1.30D-01
 IDIUse=3 WtCom= 9.22D-01 WtEn= 7.81D-02
 Coeff-Com:  0.104D+00 0.896D+00
 Coeff-En:   0.152D+00 0.848D+00
 Coeff:      0.108D+00 0.892D+00
 Gap=     0.357 Goal=   None    Shift=    0.000
 RMSDP=1.31D-03 MaxDP=1.47D-02 DE=-5.40D-02 OVMax= 9.30D-02

 Cycle   3  Pass 1  IDiag  1:
 E= -155.049481860356     Delta-E=       -0.069605045955 Rises=F Damp=F
 DIIS: error= 3.49D-03 at cycle   3 NSaved=   3.
 NSaved= 3 IEnMin= 3 EnMin= -155.049481860356     IErMin= 3 ErrMin= 3.49D-03
 ErrMax= 3.49D-03  0.00D+00 EMaxC= 1.00D-01 BMatC= 1.39D-03 BMatP= 6.20D-03
 IDIUse=3 WtCom= 9.65D-01 WtEn= 3.49D-02
 Coeff-Com:  0.165D-01 0.288D+00 0.695D+00
 Coeff-En:   0.000D+00 0.000D+00 0.100D+01
 Coeff:      0.159D-01 0.278D+00 0.706D+00
 Gap=     0.348 Goal=   None    Shift=    0.000
 RMSDP=5.83D-04 MaxDP=1.05D-02 DE=-6.96D-02 OVMax= 1.08D-02

 Cycle   4  Pass 1  IDiag  1:
 E= -155.050126766418     Delta-E=       -0.000644906061 Rises=F Damp=F
 DIIS: error= 2.15D-03 at cycle   4 NSaved=   4.
 NSaved= 4 IEnMin= 4 EnMin= -155.050126766418     IErMin= 4 ErrMin= 2.15D-03
 ErrMax= 2.15D-03  0.00D+00 EMaxC= 1.00D-01 BMatC= 5.94D-04 BMatP= 1.39D-03
 IDIUse=3 WtCom= 9.79D-01 WtEn= 2.15D-02
 Coeff-Com:  0.669D-03 0.519D-01 0.399D+00 0.548D+00
 Coeff-En:   0.000D+00 0.000D+00 0.306D+00 0.694D+00
 Coeff:      0.655D-03 0.508D-01 0.397D+00 0.551D+00
 Gap=     0.351 Goal=   None    Shift=    0.000
 RMSDP=2.46D-04 MaxDP=4.28D-03 DE=-6.45D-04 OVMax= 4.42D-03

 Cycle   5  Pass 1  IDiag  1:
 E= -155.050597788550     Delta-E=       -0.000471022132 Rises=F Damp=F
 DIIS: error= 2.40D-04 at cycle   5 NSaved=   5.
 NSaved= 5 IEnMin= 5 EnMin= -155.050597788550     IErMin= 5 ErrMin= 2.40D-04
 ErrMax= 2.40D-04  0.00D+00 EMaxC= 1.00D-01 BMatC= 5.50D-06 BMatP= 5.94D-04
 IDIUse=3 WtCom= 9.98D-01 WtEn= 2.40D-03
 Coeff-Com:  0.672D-04-0.430D-03 0.817D-01 0.160D+00 0.759D+00
 Coeff-En:   0.000D+00 0.000D+00 0.000D+00 0.000D+00 0.100D+01
 Coeff:      0.670D-04-0.429D-03 0.815D-01 0.159D+00 0.760D+00
 Gap=     0.350 Goal=   None    Shift=    0.000
 RMSDP=2.48D-05 MaxDP=2.54D-04 DE=-4.71D-04 OVMax= 5.22D-04

 Cycle   6  Pass 1  IDiag  1:
 E= -155.050602389102     Delta-E=       -0.000004600553 Rises=F Damp=F
 DIIS: error= 2.49D-05 at cycle   6 NSaved=   6.
 NSaved= 6 IEnMin= 6 EnMin= -155.050602389102     IErMin= 6 ErrMin= 2.49D-05
 ErrMax= 2.49D-05  0.00D+00 EMaxC= 1.00D-01 BMatC= 9.14D-08 BMatP= 5.50D-06
 IDIUse=1 WtCom= 1.00D+00 WtEn= 0.00D+00
 Coeff-Com:  0.107D-03-0.781D-03 0.225D-01 0.461D-01 0.251D+00 0.681D+00
 Coeff:      0.107D-03-0.781D-03 0.225D-01 0.461D-01 0.251D+00 0.681D+00
 Gap=     0.350 Goal=   None    Shift=    0.000
 RMSDP=4.25D-06 MaxDP=7.81D-05 DE=-4.60D-06 OVMax= 9.22D-05

 Cycle   7  Pass 1  IDiag  1:
 E= -155.050602461169     Delta-E=       -0.000000072067 Rises=F Damp=F
 DIIS: error= 1.06D-05 at cycle   7 NSaved=   7.
 NSaved= 7 IEnMin= 7 EnMin= -155.050602461169     IErMin= 7 ErrMin= 1.06D-05
 ErrMax= 1.06D-05  0.00D+00 EMaxC= 1.00D-01 BMatC= 1.45D-08 BMatP= 9.14D-08
 IDIUse=1 WtCom= 1.00D+00 WtEn= 0.00D+00
 Coeff-Com:  0.538D-04-0.375D-03 0.316D-02 0.722D-02 0.492D-01 0.316D+00
 Coeff-Com:  0.624D+00
 Coeff:      0.538D-04-0.375D-03 0.316D-02 0.722D-02 0.492D-01 0.316D+00
 Coeff:      0.624D+00
 Gap=     0.350 Goal=   None    Shift=    0.000
 RMSDP=1.37D-06 MaxDP=2.79D-05 DE=-7.21D-08 OVMax= 2.90D-05

 Cycle   8  Pass 1  IDiag  1:
 E= -155.050602474530     Delta-E=       -0.000000013361 Rises=F Damp=F
 DIIS: error= 1.31D-06 at cycle   8 NSaved=   8.
 NSaved= 8 IEnMin= 8 EnMin= -155.050602474530     IErMin= 8 ErrMin= 1.31D-06
 ErrMax= 1.31D-06  0.00D+00 EMaxC= 1.00D-01 BMatC= 1.81D-10 BMatP= 1.45D-08
 IDIUse=1 WtCom= 1.00D+00 WtEn= 0.00D+00
 Coeff-Com:  0.115D-04-0.385D-04-0.622D-03-0.103D-02-0.359D-02 0.361D-01
 Coeff-Com:  0.142D+00 0.827D+00
 Coeff:      0.115D-04-0.385D-04-0.622D-03-0.103D-02-0.359D-02 0.361D-01
 Coeff:      0.142D+00 0.827D+00
 Gap=     0.350 Goal=   None    Shift=    0.000
 RMSDP=1.84D-07 MaxDP=2.58D-06 DE=-1.34D-08 OVMax= 3.93D-06

 Cycle   9  Pass 1  IDiag  1:
 E= -155.050602474705     Delta-E=       -0.000000000174 Rises=F Damp=F
 DIIS: error= 1.25D-07 at cycle   9 NSaved=   9.
 NSaved= 9 IEnMin= 9 EnMin= -155.050602474705     IErMin= 9 ErrMin= 1.25D-07
 ErrMax= 1.25D-07  0.00D+00 EMaxC= 1.00D-01 BMatC= 1.34D-12 BMatP= 1.81D-10
 IDIUse=1 WtCom= 1.00D+00 WtEn= 0.00D+00
 Coeff-Com:  0.548D-07 0.190D-05-0.914D-04-0.142D-03-0.834D-03 0.167D-03
 Coeff-Com:  0.414D-02 0.709D-01 0.926D+00
 Coeff:      0.548D-07 0.190D-05-0.914D-04-0.142D-03-0.834D-03 0.167D-03
 Coeff:      0.414D-02 0.709D-01 0.926D+00
 Gap=     0.350 Goal=   None    Shift=    0.000
 RMSDP=1.72D-08 MaxDP=2.45D-07 DE=-1.74D-10 OVMax= 3.51D-07

 Cycle  10  Pass 1  IDiag  1:
 E= -155.050602474706     Delta-E=       -0.000000000001 Rises=F Damp=F
 DIIS: error= 1.09D-08 at cycle  10 NSaved=  10.
 NSaved=10 IEnMin=10 EnMin= -155.050602474706     IErMin=10 ErrMin= 1.09D-08
 ErrMax= 1.09D-08  0.00D+00 EMaxC= 1.00D-01 BMatC= 9.41D-15 BMatP= 1.34D-12
 IDIUse=1 WtCom= 1.00D+00 WtEn= 0.00D+00
 Coeff-Com: -0.184D-06 0.660D-06-0.257D-05-0.337D-05-0.476D-04-0.405D-03
 Coeff-Com: -0.118D-02-0.255D-02 0.104D+00 0.900D+00
 Coeff:     -0.184D-06 0.660D-06-0.257D-05-0.337D-05-0.476D-04-0.405D-03
 Coeff:     -0.118D-02-0.255D-02 0.104D+00 0.900D+00
 Gap=     0.350 Goal=   None    Shift=    0.000
 RMSDP=1.79D-09 MaxDP=2.57D-08 DE=-1.11D-12 OVMax= 2.69D-08

 Error on total polarization charges =  0.00557
 SCF Done:  E(RB3LYP) =  -155.050602475     A.U. after   10 cycles
            NFock= 10  Conv=0.18D-08     -V/T= 2.0093
 KE= 1.536256051387D+02 PE=-5.250954768231D+02 EE= 1.348783721891D+02
 Leave Link  502 at Fri Nov 13 17:04:12 2020, MaxMem=  2147483648 cpu:              28.9 elap:               2.5
 (Enter /cluster/software/Gaussian/g16_C.01/l801.exe)
 DoSCS=F DFT=T ScalE2(SS,OS)=  1.000000  1.000000
 Range of M.O.s used for correlation:     1    75
 NBasis=    75 NAE=    13 NBE=    13 NFC=     0 NFV=     0
 NROrb=     75 NOA=    13 NOB=    13 NVA=    62 NVB=    62
 Leave Link  801 at Fri Nov 13 17:04:12 2020, MaxMem=  2147483648 cpu:               0.3 elap:               0.0
 (Enter /cluster/software/Gaussian/g16_C.01/linda-exe/../l1101.exel)
 Using compressed storage, NAtomX=     9.
 Will process     10 centers per pass.
 Leave Link 1101 at Fri Nov 13 17:04:14 2020, MaxMem=  2147483648 cpu:               2.0 elap:               0.2
 (Enter /cluster/software/Gaussian/g16_C.01/l1102.exe)
 Symmetrizing basis deriv contribution to polar:
 IMax=3 JMax=2 DiffMx= 0.00D+00
 Leave Link 1102 at Fri Nov 13 17:04:14 2020, MaxMem=  2147483648 cpu:               0.3 elap:               0.0
 (Enter /cluster/software/Gaussian/g16_C.01/linda-exe/../l1110.exel)
 Forming Gx(P) for the SCF density, NAtomX=     9.
 Integral derivatives from FoFJK, PRISM(SPDF).
 Do as many integral derivatives as possible in FoFJK.
 G2DrvN: MDV=    2147482585.
 G2DrvN: will do    10 centers at a time, making    1 passes.
 Calling FoFCou, ICntrl=  3107 FMM=F I1Cent=   0 AccDes= 0.00D+00.
 FoFJK:  IHMeth= 1 ICntrl=    3107 DoSepK=F KAlg= 0 I1Cent=           0 FoldK=F
 IRaf=         0 NMat=       1 IRICut=       1 DoRegI=T DoRafI=F ISym2E= 0 IDoP0=0 IntGTp=1.
 FoFCou: FMM=F IPFlag=           0 FMFlag=      100000 FMFlg1=           0
         NFxFlg=           0 DoJE=F BraDBF=F KetDBF=F FulRan=T
         wScrn=  0.000000 ICntrl=      3107 IOpCl=  0 I1Cent=           0 NGrid=           0
         NMat0=    1 NMatS0=      1 NMatT0=    0 NMatD0=    1 NMtDS0=    0 NMtDT0=    0
 Symmetry not used in FoFCou.
 NEqPCM:  Using equilibrium solvation (IEInf=0, Eps=  24.8520, EpsInf=   1.8526)
 G2PCM: DoFxE=T DoFxN=T DoGrad=T DoDP/DQ/DG/TGxP=FFFF NFrqRd=   0 IEInf=0 SqF1=F DoCFld=F IF1Alg=4.
 GePol: Maximum number of non-zero 1st derivatives   =     237
 End of G2Drv F.D. properties file   721 does not exist.
 End of G2Drv F.D. properties file   722 does not exist.
 End of G2Drv F.D. properties file   788 does not exist.
 Leave Link 1110 at Fri Nov 13 17:04:19 2020, MaxMem=  2147483648 cpu:              34.6 elap:               2.8
 (Enter /cluster/software/Gaussian/g16_C.01/linda-exe/../l1002.exel)
 Minotr:  Closed shell wavefunction.
          IDoAtm=111111111
 NEqPCM:  Using equilibrium solvation (IEInf=0, Eps=  24.8520, EpsInf=   1.8526)
          Direct CPHF calculation.
          Differentiating once with respect to electric field.
                with respect to dipole field.
          Differentiating once with respect to nuclear coordinates.
          Requested convergence is 1.0D-08 RMS, and 1.0D-07 maximum.
          Secondary convergence is 1.0D-12 RMS, and 1.0D-12 maximum.
          NewPWx=T KeepS1=F KeepF1=F KeepIn=T MapXYZ=F SortEE=F KeepMc=T.
         2648 words used for storage of precomputed grid.
 Keep R1 ints in memory in canonical form, NReq=18379331.
 FoFCou: FMM=F IPFlag=           0 FMFlag=           0 FMFlg1=           0
         NFxFlg=           0 DoJE=F BraDBF=F KetDBF=F FulRan=T
         wScrn=  0.000000 ICntrl=       600 IOpCl=  0 I1Cent=           0 NGrid=           0
         NMat0=    1 NMatS0=   2850 NMatT0=    0 NMatD0=    1 NMtDS0=    0 NMtDT0=    0
 Symmetry not used in FoFCou.
 Two-electron integral symmetry not used.
          MDV=    2147483648 using IRadAn=       1.
          Solving linear equations simultaneously, MaxMat=       0.
          There are    30 degrees of freedom in the 1st order CPHF.  IDoFFX=6 NUNeed=     3.
     27 vectors produced by pass  0 Test12= 2.69D-15 3.33D-09 XBig12= 1.47D+01 1.59D+00.
 AX will form    27 AO Fock derivatives at one time.
     27 vectors produced by pass  1 Test12= 2.69D-15 3.33D-09 XBig12= 7.05D-01 2.43D-01.
     27 vectors produced by pass  2 Test12= 2.69D-15 3.33D-09 XBig12= 8.32D-03 2.12D-02.
     27 vectors produced by pass  3 Test12= 2.69D-15 3.33D-09 XBig12= 1.10D-05 6.01D-04.
     27 vectors produced by pass  4 Test12= 2.69D-15 3.33D-09 XBig12= 6.73D-09 1.52D-05.
      9 vectors produced by pass  5 Test12= 2.69D-15 3.33D-09 XBig12= 4.15D-12 3.89D-07.
      3 vectors produced by pass  6 Test12= 2.69D-15 3.33D-09 XBig12= 2.07D-15 1.04D-08.
 InvSVY:  IOpt=1 It=  1 EMax= 1.78D-15
 Solved reduced A of dimension   147 with    30 vectors.
 FullF1:  Do perturbations      1 to       3.
 Isotropic polarizability for W=    0.000000       31.75 Bohr**3.
 End of Minotr F.D. properties file   721 does not exist.
 End of Minotr F.D. properties file   722 does not exist.
 End of Minotr F.D. properties file   788 does not exist.
 Leave Link 1002 at Fri Nov 13 17:04:22 2020, MaxMem=  2147483648 cpu:              26.9 elap:               1.9
 (Enter /cluster/software/Gaussian/g16_C.01/l601.exe)
 Copying SCF densities to generalized density rwf, IOpCl= 0 IROHF=0.

 **********************************************************************

            Population analysis using the SCF Density.

 **********************************************************************

 Orbital symmetries:
       Occupied  (A) (A) (A) (A) (A) (A) (A) (A) (A) (A) (A) (A)
                 (A)
       Virtual   (A) (A) (A) (A) (A) (A) (A) (A) (A) (A) (A) (A)
                 (A) (A) (A) (A) (A) (A) (A) (A) (A) (A) (A) (A)
                 (A) (A) (A) (A) (A) (A) (A) (A) (A) (A) (A) (A)
                 (A) (A) (A) (A) (A) (A) (A) (A) (A) (A) (A) (A)
                 (A) (A) (A) (A) (A) (A) (A) (A) (A) (A) (A) (A)
                 (A) (A)
 The electronic state is 1-A.
 Alpha  occ. eigenvalues --  -19.13958 -10.22728 -10.17320  -1.00924  -0.74387
 Alpha  occ. eigenvalues --   -0.60537  -0.50847  -0.45843  -0.39701  -0.37835
 Alpha  occ. eigenvalues --   -0.36147  -0.32813  -0.26474
 Alpha virt. eigenvalues --    0.08569   0.12055   0.15863   0.16553   0.17702
 Alpha virt. eigenvalues --    0.19950   0.21379   0.23949   0.52314   0.55201
 Alpha virt. eigenvalues --    0.55602   0.57536   0.66495   0.66724   0.77887
 Alpha virt. eigenvalues --    0.83792   0.85567   0.87509   0.88711   0.91591
 Alpha virt. eigenvalues --    0.97477   1.00299   1.00979   1.12199   1.33206
 Alpha virt. eigenvalues --    1.35214   1.37531   1.58993   1.60830   1.64447
 Alpha virt. eigenvalues --    1.67536   1.86980   1.93965   1.94311   2.03635
 Alpha virt. eigenvalues --    2.04966   2.06206   2.09397   2.11823   2.27169
 Alpha virt. eigenvalues --    2.29189   2.36128   2.41066   2.45475   2.59118
 Alpha virt. eigenvalues --    2.66604   2.69540   2.72169   2.74175   2.79962
 Alpha virt. eigenvalues --    2.89605   2.90017   2.97169   3.17891   3.28833
 Alpha virt. eigenvalues --    3.37856   3.43351   3.47381   3.52786   3.87311
 Alpha virt. eigenvalues --    4.33019   4.58595
          Condensed to atoms (all electrons):
               1          2          3          4          5          6
     1  C    4.945907   0.381114   0.381115   0.372461   0.380193  -0.042005
     2  H    0.381114   0.599030  -0.034154  -0.027928  -0.032037   0.006242
     3  H    0.381115  -0.034154   0.599030  -0.027929  -0.032038  -0.007945
     4  H    0.372461  -0.027928  -0.027929   0.597583  -0.027050  -0.000327
     5  C    0.380193  -0.032037  -0.032038  -0.027050   4.678453   0.378518
     6  H   -0.042005   0.006242  -0.007945  -0.000327   0.378518   0.675668
     7  H   -0.042001  -0.007945   0.006242  -0.000327   0.378519  -0.057961
     8  O   -0.056342   0.002610   0.002609   0.002975   0.244719  -0.038838
     9  H    0.006433  -0.000069  -0.000069  -0.000306  -0.023540  -0.003967
               7          8          9
     1  C   -0.042001  -0.056342   0.006433
     2  H   -0.007945   0.002610  -0.000069
     3  H    0.006242   0.002609  -0.000069
     4  H   -0.000327   0.002975  -0.000306
     5  C    0.378519   0.244719  -0.023540
     6  H   -0.057961  -0.038838  -0.003967
     7  H    0.675661  -0.038835  -0.003969
     8  O   -0.038835   8.165663   0.286041
     9  H   -0.003969   0.286041   0.414592
 Mulliken charges:
               1
     1  C   -0.326875
     2  H    0.113139
     3  H    0.113139
     4  H    0.110850
     5  C    0.054264
     6  H    0.090614
     7  H    0.090617
     8  O   -0.570600
     9  H    0.324854
 Sum of Mulliken charges =   0.00000
 Mulliken charges with hydrogens summed into heavy atoms:
               1
     1  C    0.010252
     5  C    0.235494
     8  O   -0.245746
 APT charges:
               1
     1  C    0.061203
     2  H   -0.026394
     3  H   -0.026393
     4  H   -0.015373
     5  C    0.674863
     6  H   -0.115358
     7  H   -0.115351
     8  O   -0.721018
     9  H    0.283822
 Sum of APT charges =   0.00000
 APT charges with hydrogens summed into heavy atoms:
               1
     1  C   -0.006958
     5  C    0.444154
     8  O   -0.437196
 Electronic spatial extent (au):  <R**2>=            193.7237
 Charge=             -0.0000 electrons
 Dipole moment (field-independent basis, Debye):
    X=              0.2496    Y=              1.8367    Z=             -0.0002  Tot=              1.8536
 Quadrupole moment (field-independent basis, Debye-Ang):
   XX=            -16.3910   YY=            -20.2978   ZZ=            -19.8875
   XY=              2.0119   XZ=             -0.0005   YZ=             -0.0001
 Traceless Quadrupole moment (field-independent basis, Debye-Ang):
   XX=              2.4678   YY=             -1.4390   ZZ=             -1.0287
   XY=              2.0119   XZ=             -0.0005   YZ=             -0.0001
 Octapole moment (field-independent basis, Debye-Ang**2):
  XXX=             15.9182  YYY=             -0.3615  ZZZ=             -0.0002  XYY=              0.8972
  XXY=              2.9316  XXZ=             -0.0010  XZZ=              1.4392  YZZ=             -0.2800
  YYZ=             -0.0000  XYZ=             -0.0001
 Hexadecapole moment (field-independent basis, Debye-Ang**3):
 XXXX=           -129.2175 YYYY=            -56.5165 ZZZZ=            -32.4186 XXXY=              0.2897
 XXXZ=             -0.0013 YYYX=             -0.8955 YYYZ=             -0.0000 ZZZX=              0.0007
 ZZZY=             -0.0000 XXYY=            -35.4494 XXZZ=            -32.1826 YYZZ=            -13.7546
 XXYZ=             -0.0000 YYXZ=              0.0002 ZZXY=              0.6920
 N-N= 8.154089702066D+01 E-N=-5.250954766492D+02  KE= 1.536256051387D+02
  Exact polarizability:      34.731       0.335      31.248      -0.000      -0.000      29.258
 Approx polarizability:      35.848      -0.657      34.469      -0.000      -0.000      31.641
 No NMR shielding tensors so no spin-rotation constants.
 Leave Link  601 at Fri Nov 13 17:04:23 2020, MaxMem=  2147483648 cpu:               1.3 elap:               0.1
 (Enter /cluster/software/Gaussian/g16_C.01/linda-exe/../l701.exel)
 ... and contract with generalized density number  0.
 Compute integral second derivatives.
 D2PCM: PCM CHGder 2nd derivatives, FixD1E=F FixD2E=F DoIter=F DoCFld=F I1PDM=0
 GePol: Maximum number of non-zero 2nd derivatives   =     237
 Leave Link  701 at Fri Nov 13 17:04:26 2020, MaxMem=  2147483648 cpu:              22.2 elap:               1.6
 (Enter /cluster/software/Gaussian/g16_C.01/l702.exe)
 L702 exits ... SP integral derivatives will be done elsewhere.
 Leave Link  702 at Fri Nov 13 17:04:26 2020, MaxMem=  2147483648 cpu:               0.3 elap:               0.0
 (Enter /cluster/software/Gaussian/g16_C.01/linda-exe/../l703.exel)
 Integral derivatives from FoFJK, PRISM(SPDF).
 Compute integral second derivatives, UseDBF=F ICtDFT=           0.
 Calling FoFJK, ICntrl=    100127 FMM=F ISym2X=0 I1Cent= 0 IOpClX= 0 NMat=1 NMatS=1 NMatT=0.
 FoFJK:  IHMeth= 1 ICntrl=  100127 DoSepK=F KAlg= 0 I1Cent=           0 FoldK=F
 IRaf=         0 NMat=       1 IRICut=       1 DoRegI=T DoRafI=F ISym2E= 0 IDoP0=0 IntGTp=1.
 FoFCou: FMM=F IPFlag=           0 FMFlag=      100000 FMFlg1=         800
         NFxFlg=           0 DoJE=F BraDBF=F KetDBF=F FulRan=T
         wScrn=  0.000000 ICntrl=    100127 IOpCl=  0 I1Cent=           0 NGrid=           0
         NMat0=    1 NMatS0=      1 NMatT0=    0 NMatD0=    1 NMtDS0=    0 NMtDT0=    0
 Symmetry not used in FoFCou.
 Leave Link  703 at Fri Nov 13 17:04:29 2020, MaxMem=  2147483648 cpu:              27.6 elap:               1.8
 (Enter /cluster/software/Gaussian/g16_C.01/l716.exe)
 Dipole        = 9.82023079D-02 7.22606509D-01-8.17725303D-05
 Polarizability= 3.47314385D+01 3.35018897D-01 3.12482144D+01
                -4.62976125D-04-7.47190612D-05 2.92577846D+01
 Full mass-weighted force constant matrix:
 Low frequencies ---  -20.4580   -9.1195   -0.0009    0.0007    0.0009   25.0884
 Low frequencies ---  247.9340  284.0988  416.5291
 Diagonal vibrational polarizability:
        5.3257168       2.9228665      69.1358908
 Harmonic frequencies (cm**-1), IR intensities (KM/Mole), Raman scattering
 activities (A**4/AMU), depolarization ratios for plane and unpolarized
 incident light, reduced masses (AMU), force constants (mDyne/A),
 and normal coordinates:
                      1                      2                      3
                      A                      A                      A
 Frequencies --    247.9322               284.0878               416.5263
 Red. masses --      1.1487                 1.0703                 2.6376
 Frc consts  --      0.0416                 0.0509                 0.2696
 IR Inten    --     97.4875                77.3630                14.8063
  Atom  AN      X      Y      Z        X      Y      Z        X      Y      Z
     1   6     0.00  -0.00   0.02     0.00  -0.00   0.02    -0.19   0.05   0.00
     2   1     0.21  -0.29   0.21    -0.24   0.22  -0.12    -0.49   0.10  -0.01
     3   1    -0.21   0.29   0.21     0.24  -0.22  -0.12    -0.49   0.10   0.01
     4   1    -0.00   0.00  -0.41     0.00  -0.00   0.42     0.09   0.41   0.00
     5   6     0.00   0.00   0.03     0.00   0.00  -0.07    -0.02  -0.19  -0.00
     6   1     0.03  -0.07   0.07     0.01   0.05  -0.12    -0.07  -0.17  -0.01
     7   1    -0.03   0.07   0.07    -0.01  -0.05  -0.12    -0.07  -0.17   0.01
     8   8    -0.00  -0.00  -0.09    -0.00  -0.00  -0.00     0.22   0.06  -0.00
     9   1     0.00   0.00   0.67     0.00   0.00   0.73     0.05   0.35   0.00
                      4                      5                      6
                      A                      A                      A
 Frequencies --    821.7152               903.1115              1034.0472
 Red. masses --      1.0797                 2.2179                 2.2300
 Frc consts  --      0.4295                 1.0658                 1.4049
 IR Inten    --      0.0696                16.3093                78.9260
  Atom  AN      X      Y      Z        X      Y      Z        X      Y      Z
     1   6    -0.00   0.00  -0.05     0.21  -0.01  -0.00    -0.10  -0.17   0.00
     2   1    -0.35  -0.28   0.19    -0.17   0.10  -0.05    -0.45  -0.11  -0.02
     3   1     0.35   0.28   0.19    -0.17   0.10   0.05    -0.45  -0.11   0.02
     4   1    -0.00  -0.00   0.18     0.64   0.53  -0.00     0.12   0.13  -0.00
     5   6    -0.00   0.00  -0.06    -0.00  -0.16  -0.00     0.21   0.09  -0.00
     6   1    -0.27  -0.35   0.22    -0.20  -0.12  -0.00     0.12   0.12  -0.01
     7   1     0.27   0.35   0.22    -0.20  -0.12   0.00     0.12   0.12   0.01
     8   8     0.00  -0.00   0.02    -0.14   0.09   0.00    -0.07   0.09  -0.00
     9   1     0.00  -0.00  -0.03    -0.13   0.07  -0.00     0.30  -0.53   0.00
                      7                      8                      9
                      A                      A                      A
 Frequencies --   1110.0720              1186.3272              1274.3090
 Red. masses --      2.2524                 1.5219                 1.2238
 Frc consts  --      1.6353                 1.2620                 1.1709
 IR Inten    --     37.5087                 7.6651               107.2021
  Atom  AN      X      Y      Z        X      Y      Z        X      Y      Z
     1   6     0.08  -0.07   0.00     0.00  -0.00  -0.11     0.02  -0.08   0.00
     2   1    -0.25   0.08  -0.07    -0.25  -0.24   0.10    -0.22   0.02  -0.05
     3   1    -0.25   0.08   0.07     0.25   0.24   0.10    -0.22   0.02   0.05
     4   1     0.38   0.31  -0.00     0.00   0.00   0.22     0.14   0.08  -0.00
     5   6    -0.18   0.19  -0.00     0.00   0.00   0.18    -0.00   0.09  -0.00
     6   1    -0.38   0.15   0.02    -0.22   0.50  -0.17     0.34   0.07  -0.01
     7   1    -0.38   0.15  -0.02     0.22  -0.50  -0.17     0.34   0.08   0.01
     8   8     0.11  -0.11   0.00     0.00  -0.00  -0.05    -0.01  -0.06   0.00
     9   1     0.25  -0.34   0.00    -0.00   0.00   0.01    -0.43   0.65  -0.00
                     10                     11                     12
                      A                      A                      A
 Frequencies --   1301.7510              1409.5355              1466.7938
 Red. masses --      1.1103                 1.2358                 1.4401
 Frc consts  --      1.1085                 1.4466                 1.8255
 IR Inten    --      0.0020                 1.0374                19.9738
  Atom  AN      X      Y      Z        X      Y      Z        X      Y      Z
     1   6     0.00  -0.00  -0.09    -0.11  -0.08   0.00    -0.08  -0.01   0.00
     2   1    -0.18  -0.17   0.06     0.46   0.12  -0.17     0.20  -0.10   0.04
     3   1     0.18   0.17   0.06     0.46   0.12   0.17     0.20  -0.10  -0.04
     4   1     0.00   0.00   0.11     0.35   0.48   0.00     0.10   0.21  -0.00
     5   6    -0.00   0.00   0.03    -0.04   0.00   0.00     0.16   0.05  -0.00
     6   1     0.65  -0.06   0.01     0.22  -0.00  -0.01    -0.55   0.05   0.05
     7   1    -0.65   0.06   0.01     0.22  -0.00   0.01    -0.55   0.05  -0.05
     8   8    -0.00  -0.00   0.03     0.00   0.02  -0.00    -0.01  -0.06   0.00
     9   1    -0.00   0.00   0.00     0.07  -0.09   0.00    -0.25   0.36  -0.00
                     13                     14                     15
                      A                      A                      A
 Frequencies --   1490.0123              1504.8178              1540.8675
 Red. masses --      1.0405                 1.0528                 1.0872
 Frc consts  --      1.3611                 1.4047                 1.5209
 IR Inten    --      6.5002                 2.4780                 2.6781
  Atom  AN      X      Y      Z        X      Y      Z        X      Y      Z
     1   6    -0.00   0.00  -0.05     0.01  -0.05  -0.00     0.00  -0.02  -0.00
     2   1     0.46  -0.17   0.05    -0.03   0.49  -0.37     0.00   0.19  -0.14
     3   1    -0.46   0.17   0.05    -0.03   0.49   0.37     0.00   0.19   0.14
     4   1     0.00   0.00   0.71    -0.17  -0.25   0.00    -0.08  -0.11   0.00
     5   6     0.00   0.00  -0.02     0.04   0.02  -0.00     0.01  -0.08  -0.00
     6   1    -0.02  -0.04   0.00    -0.10  -0.21   0.16    -0.07   0.52  -0.40
     7   1     0.02   0.04   0.00    -0.10  -0.21  -0.16    -0.07   0.52   0.40
     8   8    -0.00  -0.00   0.00    -0.01   0.00   0.00     0.00  -0.01   0.00
     9   1    -0.00   0.00   0.01    -0.02   0.02  -0.00    -0.01   0.02  -0.00
                     16                     17                     18
                      A                      A                      A
 Frequencies --   2987.0292              3014.3861              3047.4390
 Red. masses --      1.0557                 1.1075                 1.0353
 Frc consts  --      5.5496                 5.9292                 5.6647
 IR Inten    --     91.3165                93.3911                22.1137
  Atom  AN      X      Y      Z        X      Y      Z        X      Y      Z
     1   6    -0.00   0.00   0.00     0.00  -0.00   0.01     0.04   0.03  -0.00
     2   1    -0.00  -0.00  -0.00    -0.00  -0.05  -0.06    -0.03  -0.34  -0.48
     3   1    -0.00  -0.00   0.00     0.00   0.05  -0.06    -0.03  -0.34   0.48
     4   1     0.03  -0.03  -0.00    -0.00   0.00   0.00    -0.42   0.35   0.00
     5   6    -0.01  -0.06  -0.00     0.00   0.00  -0.09    -0.00  -0.00  -0.00
     6   1     0.04   0.40   0.58     0.05   0.41   0.56     0.00   0.01   0.01
     7   1     0.04   0.40  -0.58    -0.05  -0.41   0.56     0.00   0.01  -0.01
     8   8     0.00  -0.00   0.00    -0.00  -0.00   0.00     0.00  -0.00  -0.00
     9   1     0.00  -0.00  -0.00     0.00   0.00   0.01     0.00  -0.00   0.00
                     19                     20                     21
                      A                      A                      A
 Frequencies --   3121.2192              3124.6395              3812.5567
 Red. masses --      1.1037                 1.1025                 1.0665
 Frc consts  --      6.3352                 6.3419                 9.1334
 IR Inten    --     56.2671                41.4004                29.3492
  Atom  AN      X      Y      Z        X      Y      Z        X      Y      Z
     1   6    -0.00   0.00  -0.09    -0.05   0.08   0.00    -0.00   0.00   0.00
     2   1     0.04   0.41   0.56    -0.03  -0.21  -0.32     0.00   0.00   0.00
     3   1    -0.04  -0.41   0.56    -0.03  -0.21   0.32     0.00   0.00  -0.00
     4   1     0.00  -0.00  -0.02     0.65  -0.52  -0.00     0.00  -0.00  -0.00
     5   6     0.00   0.00  -0.01     0.00   0.00   0.00    -0.00  -0.00   0.00
     6   1     0.01   0.04   0.06    -0.00  -0.02  -0.02     0.00  -0.00   0.00
     7   1    -0.01  -0.04   0.06    -0.00  -0.02   0.02     0.00  -0.00  -0.00
     8   8     0.00  -0.00   0.00     0.00  -0.00  -0.00    -0.05  -0.03   0.00
     9   1     0.00  -0.00   0.00    -0.00  -0.00  -0.00     0.86   0.50  -0.00

 -------------------
 - Thermochemistry -
 -------------------
 Temperature   298.150 Kelvin.  Pressure   1.00000 Atm.
 Atom     1 has atomic number  6 and mass  12.00000
 Atom     2 has atomic number  1 and mass   1.00783
 Atom     3 has atomic number  1 and mass   1.00783
 Atom     4 has atomic number  1 and mass   1.00783
 Atom     5 has atomic number  6 and mass  12.00000
 Atom     6 has atomic number  1 and mass   1.00783
 Atom     7 has atomic number  1 and mass   1.00783
 Atom     8 has atomic number  8 and mass  15.99491
 Atom     9 has atomic number  1 and mass   1.00783
 Molecular mass:    46.04186 amu.
 Principal axes and moments of inertia in atomic units:
                           1         2         3
     Eigenvalues --    51.47199 193.95849 222.80255
           X            0.99908   0.04277   0.00001
           Y           -0.04277   0.99908   0.00000
           Z           -0.00001  -0.00001   1.00000
 This molecule is an asymmetric top.
 Rotational symmetry number  1.
 Rotational temperatures (Kelvin)      1.68274     0.44656     0.38875
 Rotational constants (GHZ):          35.06259     9.30478     8.10018
 Zero-point vibrational energy     209939.7 (Joules/Mol)
                                   50.17679 (Kcal/Mol)
 Warning -- explicit consideration of   3 degrees of freedom as
           vibrations may cause significant error
 Vibrational temperatures:    356.72   408.74   599.29  1182.26  1299.38
          (Kelvin)           1487.76  1597.15  1706.86  1833.45  1872.93
                             2028.01  2110.39  2143.80  2165.10  2216.96
                             4297.67  4337.03  4384.59  4490.74  4495.66
                             5485.42
 
 Zero-point correction=                           0.079962 (Hartree/Particle)
 Thermal correction to Energy=                    0.084268
 Thermal correction to Enthalpy=                  0.085212
 Thermal correction to Gibbs Free Energy=         0.054555
 Sum of electronic and zero-point Energies=           -154.970641
 Sum of electronic and thermal Energies=              -154.966335
 Sum of electronic and thermal Enthalpies=            -154.965390
 Sum of electronic and thermal Free Energies=         -154.996048
 
                     E (Thermal)             CV                S
                      KCal/Mol        Cal/Mol-Kelvin    Cal/Mol-Kelvin
 Total                   52.879             13.515             64.524
 Electronic               0.000              0.000              0.000
 Translational            0.889              2.981             37.406
 Rotational               0.889              2.981             22.324
 Vibrational             51.101              7.554              4.793
 Vibration     1          0.662              1.766              1.745
 Vibration     2          0.682              1.703              1.509
 Vibration     3          0.780              1.434              0.904
                       Q            Log10(Q)             Ln(Q)
 Total Bot       0.806466D-25        -25.093414        -57.779721
 Total V=0       0.485770D+12         11.686431         26.909002
 Vib (Bot)       0.389007D-36        -36.410043        -83.837222
 Vib (Bot)    1  0.787965D+00         -0.103493         -0.238301
 Vib (Bot)    2  0.675300D+00         -0.170503         -0.392598
 Vib (Bot)    3  0.422672D+00         -0.373996         -0.861158
 Vib (V=0)       0.234316D+01          0.369802          0.851501
 Vib (V=0)    1  0.143321D+01          0.156311          0.359920
 Vib (V=0)    2  0.134026D+01          0.127188          0.292861
 Vib (V=0)    3  0.115472D+01          0.062475          0.143854
 Electronic      0.100000D+01          0.000000          0.000000
 Translational   0.122796D+08          7.089183         16.323448
 Rotational      0.168828D+05          4.227446          9.734053
 
                                                         Title Card Required
                                                             IR Spectrum
 
     3                      33 332                                               1111 1  11  1  1 1                                  
     8                      11 009                                               5544 4  32  1  1 0   9  8             4   22        
     1                      22 418                                               4096 1  07  8  1 3   0  2             1   84        
     3                      51 747                                               1507 0  24  6  0 4   3  2             7   48        
 
     X                      XX XXX                                               XXXX X   X  X  X X   X  X             X   XX        
     X                      XX XXX                                                  X     X     X X   X                X   XX        
     X                      XX XXX                                                  X     X     X X   X                X   XX        
     X                      XX XXX                                                  X     X     X X                        XX        
     X                      XX  XX                                                        X     X X                        XX        
                            XX  XX                                                        X     X X                        XX        
                            XX  XX                                                        X     X X                        XX        
                            XX  XX                                                        X       X                        XX        
                             X  XX                                                        X       X                        XX        
                             X  XX                                                        X       X                        XX        
                                XX                                                        X       X                        XX        
                                XX                                                        X       X                        XX        
                                XX                                                        X       X                        XX        
                                XX                                                        X       X                        XX        
                                XX                                                        X       X                         X        
                                XX                                                        X                                 X        
                                XX                                                        X                                 X        
                                                                                          X                                 X        
                                                                                          X                                          
                                                                                          X                                          
 
 ***** Axes restored to original set *****
 -------------------------------------------------------------------
 Center     Atomic                   Forces (Hartrees/Bohr)
 Number     Number              X              Y              Z
 -------------------------------------------------------------------
      1        6          -0.000146475    0.000016355    0.000000465
      2        1          -0.000002109    0.000043080    0.000069983
      3        1          -0.000002145    0.000043142   -0.000070157
      4        1           0.000073971   -0.000074140   -0.000000051
      5        6           0.000122279    0.000016871   -0.000000361
      6        1          -0.000050562   -0.000051872   -0.000075969
      7        1          -0.000050736   -0.000052096    0.000076123
      8        8           0.000109851    0.000190581   -0.000000505
      9        1          -0.000054073   -0.000131919    0.000000473
 -------------------------------------------------------------------
 Cartesian Forces:  Max     0.000190581 RMS     0.000075102
 Z-matrix is all fixed cartesians, so copy forces.
 Force constants in Cartesian coordinates: 
                1             2             3             4             5 
      1  0.515928D+00
      2 -0.442748D-01  0.558741D+00
      3  0.000000D+00  0.189022D-05  0.576834D+00
      4 -0.485032D-01 -0.734319D-02 -0.109794D-01  0.499726D-01
      5 -0.917977D-02 -0.136189D+00 -0.122878D+00  0.125543D-01  0.146200D+00
      6 -0.121749D-01 -0.124198D+00 -0.225945D+00  0.131168D-01  0.136939D+00
      7 -0.485025D-01 -0.734010D-02  0.109746D-01 -0.827043D-03  0.116540D-02
      8 -0.917663D-02 -0.136192D+00  0.122879D+00  0.116498D-02  0.124305D-01
      9  0.121699D-01  0.124199D+00 -0.225942D+00  0.105062D-02  0.156799D-01
     10 -0.207322D+00  0.128765D+00  0.322387D-05  0.253907D-02 -0.241901D-02
     11  0.131740D+00 -0.156521D+00 -0.292253D-05  0.134066D-01 -0.111991D-01
     12  0.327600D-05 -0.288308D-05 -0.469436D-01  0.216369D-01 -0.158462D-01
     13 -0.161942D+00 -0.709942D-01  0.000000D+00 -0.264846D-02 -0.105808D-03
     14 -0.567087D-01 -0.123415D+00  0.000000D+00 -0.187308D-01 -0.127169D-01
     15  0.000000D+00  0.000000D+00 -0.838578D-01 -0.261039D-01 -0.156151D-01
     16 -0.206116D-02 -0.174348D-01 -0.252635D-01 -0.522452D-02 -0.381674D-02
     17 -0.311484D-02 -0.893423D-02 -0.142666D-01 -0.298528D-02 -0.790088D-03
     18  0.293430D-03  0.140281D-02  0.858060D-03  0.277698D-04  0.328450D-03
     19 -0.206062D-02 -0.174348D-01  0.252636D-01  0.125602D-02  0.838974D-03
     20 -0.311440D-02 -0.893426D-02  0.142664D-01  0.107661D-02  0.417234D-03
     21 -0.293330D-03 -0.140264D-02  0.857788D-03  0.306838D-03  0.107137D-03
     22 -0.411136D-01  0.294858D-01  0.000000D+00  0.292361D-02  0.693519D-03
     23 -0.915436D-02  0.143345D-01  0.000000D+00  0.865544D-03  0.186010D-02
     24  0.139328D-05  0.000000D+00  0.409204D-02  0.637914D-03  0.109136D-02
     25 -0.442215D-02  0.657114D-02  0.000000D+00  0.511895D-03  0.269174D-03
     26  0.298372D-02 -0.289115D-02  0.000000D+00 -0.872728D-05 -0.129059D-04
     27  0.000000D+00  0.000000D+00  0.464427D-04  0.306537D-03  0.193649D-03
                6             7             8             9            10 
      6  0.241056D+00
      7 -0.105113D-02  0.499720D-01
      8 -0.156794D-01  0.125507D-01  0.146203D+00
      9 -0.199056D-01 -0.131115D-01 -0.136940D+00  0.241053D+00
     10  0.676258D-03  0.253843D-02 -0.241853D-02 -0.676333D-03  0.224944D+00
     11  0.154206D-02  0.134070D-01 -0.111994D-01 -0.154256D-02 -0.142502D+00
     12  0.109833D-02 -0.216368D-01  0.158462D-01  0.109912D-02 -0.369340D-05
     13  0.201687D-03 -0.264783D-02 -0.105475D-03 -0.201410D-03 -0.161197D-01
     14  0.915156D-03 -0.187313D-01 -0.127169D-01 -0.914787D-03  0.222771D-01
     15  0.882505D-03  0.261039D-01  0.156150D-01  0.881966D-03  0.000000D+00
     16  0.345545D-03  0.125601D-02  0.838945D-03  0.635213D-03  0.938330D-03
     17 -0.175556D-03  0.107663D-02  0.417230D-03 -0.391216D-04 -0.209541D-03
     18  0.157386D-02 -0.306837D-03 -0.107165D-03  0.109969D-02 -0.619584D-03
     19 -0.635206D-03 -0.522457D-02 -0.381666D-02 -0.345433D-03  0.938311D-03
     20  0.391155D-04 -0.298527D-02 -0.790052D-03  0.175615D-03 -0.209512D-03
     21  0.109973D-02 -0.276697D-04 -0.328417D-03  0.157387D-02  0.619562D-03
     22 -0.446714D-03  0.292358D-02  0.693410D-03  0.446675D-03 -0.712737D-02
     23  0.367138D-03  0.865609D-03  0.186007D-02 -0.367031D-03 -0.448264D-02
     24  0.862565D-05 -0.638020D-03 -0.109131D-02  0.853647D-05  0.000000D+00
     25 -0.322958D-04  0.511926D-03  0.269224D-03  0.322908D-04 -0.132881D-02
     26  0.250184D-03 -0.873161D-05 -0.128977D-04 -0.250225D-03  0.119879D-02
     27  0.131379D-03 -0.306545D-03 -0.193694D-03  0.131422D-03  0.000000D+00
               11            12            13            14            15 
     11  0.165954D+00
     12  0.306927D-05  0.457697D-01
     13 -0.123928D-01  0.000000D+00  0.470960D+00
     14  0.125827D-01  0.000000D+00  0.357670D-01  0.536655D+00
     15  0.000000D+00 -0.266983D-02 -0.258942D-05 -0.257221D-05  0.588781D+00
     16  0.842168D-03  0.212999D-03 -0.520400D-01 -0.142838D-01 -0.168425D-01
     17  0.487455D-03  0.153342D-03 -0.126146D-01 -0.126073D+00 -0.106522D+00
     18 -0.171110D-03  0.558473D-04 -0.168505D-01 -0.109556D+00 -0.218780D+00
     19  0.842151D-03 -0.213041D-03 -0.520398D-01 -0.142819D-01  0.168406D-01
     20  0.487453D-03 -0.153345D-03 -0.126117D-01 -0.126072D+00  0.106522D+00
     21  0.171083D-03  0.558409D-04  0.168478D-01  0.109557D+00 -0.218782D+00
     22 -0.416164D-02  0.000000D+00 -0.155007D+00  0.843271D-01  0.000000D+00
     23 -0.135177D-02  0.000000D+00  0.391505D-01 -0.157456D+00  0.493064D-05
     24  0.000000D+00  0.740569D-03  0.590422D-05  0.000000D+00 -0.640485D-01
     25 -0.118163D-02  0.000000D+00 -0.285146D-01 -0.196347D-01  0.371937D-05
     26  0.759015D-03  0.000000D+00  0.339070D-01  0.921209D-02 -0.353611D-05
     27  0.000000D+00  0.794026D-03 -0.136421D-05  0.000000D+00 -0.240730D-02
               16            17            18            19            20 
     16  0.608039D-01
     17  0.536210D-02  0.144732D+00
     18  0.146700D-01  0.124323D+00  0.229535D+00
     19  0.300149D-02  0.358805D-03 -0.352409D-02  0.608035D-01
     20  0.358643D-03  0.117175D-01 -0.142659D-01  0.536007D-02  0.144731D+00
     21  0.352371D-02  0.142658D-01 -0.228720D-01 -0.146677D-01 -0.124323D+00
     22 -0.860340D-02  0.133780D-01  0.574300D-02 -0.860434D-02  0.133771D-01
     23  0.277524D-01 -0.218343D-01 -0.163982D-02  0.277522D-01 -0.218341D-01
     24  0.223416D-01 -0.188352D-01  0.788018D-02 -0.223417D-01  0.188357D-01
     25  0.192929D-02 -0.125126D-02  0.566816D-03  0.192998D-02 -0.125159D-02
     26  0.381178D-03  0.277247D-03 -0.314489D-03  0.381282D-03  0.277604D-03
     27  0.377064D-03  0.109613D-02  0.648829D-03 -0.377132D-03 -0.109630D-02
               21            22            23            24            25 
     21  0.229538D+00
     22 -0.574214D-02  0.590489D+00
     23  0.163886D-02  0.103792D+00  0.362934D+00
     24  0.787976D-02 -0.546194D-04 -0.348750D-04  0.459639D-01
     25 -0.567115D-03 -0.375880D+00 -0.186541D+00  0.470310D-04  0.405263D+00
     26  0.314525D-03 -0.241585D+00 -0.178512D+00  0.349452D-04  0.202751D+00
     27  0.649370D-03  0.527170D-04  0.307962D-04 -0.252503D-02 -0.504482D-04
               26            27 
     26  0.170903D+00
     27 -0.313748D-04  0.253085D-02
 Leave Link  716 at Fri Nov 13 17:04:30 2020, MaxMem=  2147483648 cpu:               0.4 elap:               0.1
 (Enter /cluster/software/Gaussian/g16_C.01/l103.exe)

 GradGradGradGradGradGradGradGradGradGradGradGradGradGradGradGradGradGrad
 Berny optimization.
 Search for a local minimum.
 Step number   1 out of a maximum of    2
 All quantities printed in internal units (Hartrees-Bohrs-Radians)
 Second derivative matrix not updated -- analytic derivatives used.
 ITU=  0
     Eigenvalues ---    0.00341   0.00427   0.01811   0.03071   0.05354
     Eigenvalues ---    0.06483   0.08104   0.08385   0.10763   0.11415
     Eigenvalues ---    0.14714   0.15234   0.19086   0.29445   0.44451
     Eigenvalues ---    0.64061   0.69097   0.76029   0.81381   0.82488
     Eigenvalues ---    1.02159
 Angle between quadratic step and forces=  56.94 degrees.
 Linear search not attempted -- first point.
 B after Tr=     0.000110    0.000080   -0.000013
         Rot=    1.000000   -0.000002   -0.000002   -0.000018 Ang=  -0.00 deg.
 Variable       Old X    -DE/DX   Delta X   Delta X   Delta X     New X
                                 (Linear)    (Quad)   (Total)
    X1       -2.31488  -0.00015   0.00000  -0.00017  -0.00005  -2.31493
    Y1       -0.41923   0.00002   0.00000   0.00001   0.00001  -0.41922
    Z1        0.00002   0.00000   0.00000   0.00001   0.00000   0.00003
    X2       -2.45241  -0.00000   0.00000  -0.00056  -0.00040  -2.45281
    Y2       -1.62310   0.00004   0.00000   0.00011   0.00011  -1.62299
    Z2       -1.67649   0.00007   0.00000   0.00025   0.00024  -1.67625
    X3       -2.45237  -0.00000   0.00000  -0.00055  -0.00037  -2.45274
    Y3       -1.62312   0.00004   0.00000   0.00012   0.00011  -1.62301
    Z3        1.67652  -0.00007   0.00000  -0.00022  -0.00023   1.67629
    X4       -3.91946   0.00007   0.00000   0.00037   0.00045  -3.91901
    Y4        0.88555  -0.00007   0.00000   0.00018   0.00012   0.88567
    Z4        0.00006  -0.00000   0.00000   0.00000   0.00001   0.00007
    X5        0.16107   0.00012   0.00000   0.00024   0.00031   0.16138
    Y5        1.03393   0.00002   0.00000  -0.00020  -0.00012   1.03382
    Z5        0.00000  -0.00000   0.00000  -0.00001  -0.00002  -0.00002
    X6        0.26266  -0.00005   0.00000  -0.00076  -0.00073   0.26194
    Y6        2.26480  -0.00005   0.00000  -0.00026  -0.00018   2.26462
    Z6        1.67403  -0.00008   0.00000  -0.00025  -0.00025   1.67378
    X7        0.26264  -0.00005   0.00000  -0.00080  -0.00078   0.26186
    Y7        2.26479  -0.00005   0.00000  -0.00025  -0.00015   2.26463
    Z7       -1.67403   0.00008   0.00000   0.00023   0.00022  -1.67381
    X8        2.18403   0.00011   0.00000   0.00045   0.00058   2.18461
    Y8       -0.75533   0.00019   0.00000   0.00046   0.00062  -0.75471
    Z8       -0.00001  -0.00000   0.00000  -0.00004  -0.00007  -0.00007
    X9        3.74960  -0.00005   0.00000   0.00087   0.00097   3.75057
    Y9        0.18552  -0.00013   0.00000  -0.00073  -0.00051   0.18500
    Z9       -0.00021   0.00000   0.00000   0.00013   0.00010  -0.00011
         Item               Value     Threshold  Converged?
 Maximum Force            0.000191     0.000450     YES
 RMS     Force            0.000075     0.000300     YES
 Maximum Displacement     0.000974     0.001800     YES
 RMS     Displacement     0.000385     0.001200     YES
 Predicted change in Energy=-2.189319D-07
 Optimization completed.
    -- Stationary point found.
 GradGradGradGradGradGradGradGradGradGradGradGradGradGradGradGradGradGrad

 Leave Link  103 at Fri Nov 13 17:04:30 2020, MaxMem=  2147483648 cpu:               0.3 elap:               0.0
 (Enter /cluster/software/Gaussian/g16_C.01/l9999.exe)

 ----------------------------------------------------------------------

 Electric dipole moment (input orientation):
 (Debye = 10**-18 statcoulomb cm , SI units = C m)
                  (au)            (Debye)         (10**-30 SI)
   Tot        0.729249D+00      0.185357D+01      0.618283D+01
   x          0.982024D-01      0.249606D+00      0.832595D+00
   y          0.722606D+00      0.183668D+01      0.612651D+01
   z         -0.817725D-04     -0.207845D-03     -0.693296D-03

 Dipole polarizability, Alpha (input orientation).
 (esu units = cm**3 , SI units = C**2 m**2 J**-1)
 Alpha(0;0):
               (au)            (10**-24 esu)      (10**-40 SI)
   iso        0.317458D+02      0.470424D+01      0.523418D+01
   aniso      0.483368D+01      0.716278D+00      0.796967D+00
   xx         0.347314D+02      0.514667D+01      0.572644D+01
   yx         0.335018D+00      0.496446D-01      0.552371D-01
   yy         0.312482D+02      0.463051D+01      0.515213D+01
   zx        -0.462976D-03     -0.686060D-04     -0.763345D-04
   zy        -0.747190D-04     -0.110722D-04     -0.123195D-04
   zz         0.292578D+02      0.433556D+01      0.482396D+01

 ----------------------------------------------------------------------

 Dipole orientation:
     6         -2.21695504          0.30134225         -0.72713517
     1         -1.96557294          1.95923745         -1.93837114
     1         -2.41704967         -1.36323731         -1.93876349
     1         -3.96656263          0.53895818          0.34968400
     6          0.02016801         -0.00286304          1.04620579
     1         -0.26976946         -1.65301893          2.27934941
     1          0.18106863          1.66455748          2.27971243
     8          2.24521771         -0.30506852         -0.45434866
     1          3.65686896         -0.49683186          0.68875677

 Electric dipole moment (dipole orientation):
 (Debye = 10**-18 statcoulomb cm , SI units = C m)
                  (au)            (Debye)         (10**-30 SI)
   Tot        0.729249D+00      0.185357D+01      0.618283D+01
   x          0.000000D+00      0.000000D+00      0.000000D+00
   y          0.000000D+00      0.000000D+00      0.000000D+00
   z          0.729249D+00      0.185357D+01      0.618283D+01

 Dipole polarizability, Alpha (dipole orientation).
 (esu units = cm**3 , SI units = C**2 m**2 J**-1)
 Alpha(0;0):
               (au)            (10**-24 esu)      (10**-40 SI)
   iso        0.317458D+02      0.470424D+01      0.523418D+01
   aniso      0.483368D+01      0.716278D+00      0.796967D+00
   xx         0.344825D+02      0.510977D+01      0.568539D+01
   yx        -0.709676D+00     -0.105163D+00     -0.117010D+00
   yy         0.293542D+02      0.434984D+01      0.483985D+01
   zx         0.780467D+00      0.115653D+00      0.128682D+00
   zy        -0.106170D+00     -0.157328D-01     -0.175051D-01
   zz         0.314008D+02      0.465312D+01      0.517729D+01

 ----------------------------------------------------------------------
 Unable to Open any file for archive entry.
 1\1\GINC-C30-3\Freq\RB3LYP\6-31G(d,p)\C2H6O1\GVI022\13-Nov-2020\0\\#p 
 freq=noraman scrf=(iefpcm,solvent=ethanol) b3lyp/6-31g(d,p)\\Title Car
 d Required\\0,1\C,-1.224982,-0.221845,0.000013\H,-1.297761,-0.858905,-
 0.887158\H,-1.297737,-0.858917,0.887178\H,-2.074089,0.468615,0.000031\
 C,0.085234,0.547134,0.000002\H,0.138995,1.198478,0.885861\H,0.138983,1
 .198473,-0.885861\O,1.155737,-0.399706,-0.000003\H,1.984203,0.098171,-
 0.000113\\Version=ES64L-G16RevC.01\State=1-A\HF=-155.0506025\RMSD=1.79
 0e-09\RMSF=7.510e-05\ZeroPoint=0.0799618\Thermal=0.0842679\ETot=-154.9
 663346\HTot=-154.9653904\GTot=-154.9960477\Dipole=0.0982024,0.7226065,
 -0.0000818\DipoleDeriv=-0.048462,-0.0368352,0.0000038,-0.0670604,0.102
 7452,0.0000002,-0.0000009,-0.0000015,0.1293255,0.0502279,-0.0193501,0.
 004283,-0.0550571,-0.0354978,-0.1156595,-0.0186489,-0.121304,-0.093912
 9,0.0502307,-0.0193463,-0.0042874,-0.0550539,-0.0354997,0.1156614,0.01
 86432,0.1213054,-0.0939105,-0.0902515,0.0904991,0.0000034,0.1155766,-0
 .0354101,-0.0000029,0.0000033,-0.0000031,0.079542,0.8592418,-0.2963021
 ,-0.0000136,-0.268739,0.6242103,0.000025,-0.0000041,0.0000169,0.541136
 ,-0.063152,-0.0068174,-0.0265113,0.0299033,-0.1147984,-0.1313345,-0.01
 45949,-0.1649223,-0.1681227,-0.0631475,-0.0068168,0.0265131,0.0299066,
 -0.1147877,0.131327,0.014597,0.1649168,-0.1681183,-0.9065992,0.369624,
 -0.0000086,0.3671922,-0.6229215,-0.0000383,-0.0000079,-0.0000228,-0.63
 35331,0.2119117,-0.0746552,0.0000177,-0.0966684,0.2319596,0.0000215,0.
 0000132,0.0000147,0.4075939\Polar=34.7314386,0.3350184,31.2482143,-0.0
 00463,-0.0000747,29.2577846\Quadrupole=1.8347131,-1.069891,-0.7648221,
 1.4958112,-0.0003461,-0.0000491\PG=C01 [X(C2H6O1)]\NImag=0\\0.51592797
 ,-0.04427483,0.55874055,0.00000048,0.00000189,0.57683391,-0.04850321,-
 0.00734319,-0.01097945,0.04997264,-0.00917977,-0.13618851,-0.12287835,
 0.01255426,0.14619971,-0.01217492,-0.12419790,-0.22594516,0.01311678,0
 .13693923,0.24105635,-0.04850254,-0.00734010,0.01097458,-0.00082704,0.
 00116540,-0.00105113,0.04997204,-0.00917663,-0.13619155,0.12287918,0.0
 0116498,0.01243048,-0.01567943,0.01255074,0.14620307,0.01216989,0.1241
 9858,-0.22594163,0.00105062,0.01567985,-0.01990562,-0.01311151,-0.1369
 4033,0.24105265,-0.20732235,0.12876502,0.00000322,0.00253907,-0.002419
 01,0.00067626,0.00253843,-0.00241853,-0.00067633,0.22494407,0.13173981
 ,-0.15652073,-0.00000292,0.01340663,-0.01119912,0.00154206,0.01340700,
 -0.01119940,-0.00154256,-0.14250168,0.16595441,0.00000328,-0.00000288,
 -0.04694364,0.02163690,-0.01584624,0.00109833,-0.02163676,0.01584620,0
 .00109912,-0.00000369,0.00000307,0.04576973,-0.16194234,-0.07099419,0.
 00000032,-0.00264846,-0.00010581,0.00020169,-0.00264783,-0.00010548,-0
 .00020141,-0.01611967,-0.01239281,0.00000015,0.47095955,-0.05670870,-0
 .12341466,0.00000050,-0.01873082,-0.01271690,0.00091516,-0.01873128,-0
 .01271695,-0.00091479,0.02227710,0.01258269,-0.00000018,0.03576697,0.5
 3665455,0.00000035,0.00000096,-0.08385780,-0.02610391,-0.01561509,0.00
 088250,0.02610390,0.01561497,0.00088197,0.00000031,0.00000022,-0.00266
 983,-0.00000259,-0.00000257,0.58878113,-0.00206116,-0.01743483,-0.0252
 6354,-0.00522452,-0.00381674,0.00034555,0.00125601,0.00083894,0.000635
 21,0.00093833,0.00084217,0.00021300,-0.05203996,-0.01428382,-0.0168425
 5,0.06080391,-0.00311484,-0.00893423,-0.01426664,-0.00298528,-0.000790
 09,-0.00017556,0.00107663,0.00041723,-0.00003912,-0.00020954,0.0004874
 5,0.00015334,-0.01261458,-0.12607252,-0.10652159,0.00536210,0.14473172
 ,0.00029343,0.00140281,0.00085806,0.00002777,0.00032845,0.00157386,-0.
 00030684,-0.00010716,0.00109969,-0.00061958,-0.00017111,0.00005585,-0.
 01685049,-0.10955562,-0.21877993,0.01466999,0.12432282,0.22953546,-0.0
 0206062,-0.01743483,0.02526365,0.00125602,0.00083897,-0.00063521,-0.00
 522457,-0.00381666,-0.00034543,0.00093831,0.00084215,-0.00021304,-0.05
 203976,-0.01428194,0.01684061,0.00300149,0.00035880,-0.00352409,0.0608
 0349,-0.00311440,-0.00893426,0.01426640,0.00107661,0.00041723,0.000039
 12,-0.00298527,-0.00079005,0.00017562,-0.00020951,0.00048745,-0.000153
 35,-0.01261166,-0.12607242,0.10652171,0.00035864,0.01171753,-0.0142658
 7,0.00536007,0.14473102,-0.00029333,-0.00140264,0.00085779,0.00030684,
 0.00010714,0.00109973,-0.00002767,-0.00032842,0.00157387,0.00061956,0.
 00017108,0.00005584,0.01684780,0.10955667,-0.21878219,0.00352371,0.014
 26578,-0.02287199,-0.01466766,-0.12432299,0.22953782,-0.04111360,0.029
 48581,0.00000076,0.00292361,0.00069352,-0.00044671,0.00292358,0.000693
 41,0.00044667,-0.00712737,-0.00416164,0.00000016,-0.15500691,0.0843271
 4,0.00000016,-0.00860340,0.01337797,0.00574300,-0.00860434,0.01337712,
 -0.00574214,0.59048862,-0.00915436,0.01433455,0.,0.00086554,0.00186010
 ,0.00036714,0.00086561,0.00186007,-0.00036703,-0.00448264,-0.00135177,
 0.,0.03915051,-0.15745588,0.00000493,0.02775236,-0.02183434,-0.0016398
 2,0.02775216,-0.02183410,0.00163886,0.10379209,0.36293376,0.00000139,-
 0.00000097,0.00409204,0.00063791,0.00109136,0.00000863,-0.00063802,-0.
 00109131,0.00000854,0.00000052,0.00000015,0.00074057,0.00000590,0.0000
 0020,-0.06404855,0.02234157,-0.01883516,0.00788018,-0.02234169,0.01883
 567,0.00787976,-0.00005462,-0.00003488,0.04596387,-0.00442215,0.006571
 14,0.,0.00051190,0.00026917,-0.00003230,0.00051193,0.00026922,0.000032
 29,-0.00132881,-0.00118163,0.,-0.02851462,-0.01963466,0.00000372,0.001
 92929,-0.00125126,0.00056682,0.00192998,-0.00125159,-0.00056712,-0.375
 88019,-0.18654128,0.00004703,0.40526268,0.00298372,-0.00289115,-0.0000
 0006,-0.00000873,-0.00001291,0.00025018,-0.00000873,-0.00001290,-0.000
 25022,0.00119879,0.00075901,0.00000003,0.03390704,0.00921209,-0.000003
 54,0.00038118,0.00027725,-0.00031449,0.00038128,0.00027760,0.00031453,
 -0.24158542,-0.17851237,0.00003495,0.20275088,0.17090337,-0.00000056,0
 .00000015,0.00004644,0.00030654,0.00019365,0.00013138,-0.00030655,-0.0
 0019369,0.00013142,-0.00000027,0.00000001,0.00079403,-0.00000136,0.000
 00064,-0.00240730,0.00037706,0.00109613,0.00064883,-0.00037713,-0.0010
 9630,0.00064937,0.00005272,0.00003080,-0.00252503,-0.00005045,-0.00003
 137,0.00253085\\0.00014647,-0.00001635,-0.00000047,0.00000211,-0.00004
 308,-0.00006998,0.00000214,-0.00004314,0.00007016,-0.00007397,0.000074
 14,0.00000005,-0.00012228,-0.00001687,0.00000036,0.00005056,0.00005187
 ,0.00007597,0.00005074,0.00005210,-0.00007612,-0.00010985,-0.00019058,
 0.00000051,0.00005407,0.00013192,-0.00000047\\\@
 The archive entry for this job was punched.


 SOME PHYSICISTS WOULD PREFER TO COME BACK TO THE IDEA OF AN OBJECTIVE
 REAL WORLD WHOSE SMALLEST PARTS EXIST OBJECTIVELY IN THE SAME SENSE AS
 STONES OR TREES EXIST INDEPENDENTLY OF WHETHER WE OBSERVE THEM.
 THIS, HOWEVER, IS IMPOSSIBLE.  -- WERNER HEISENBERG
 Job cpu time:       0 days  0 hours  0 minutes  8.3 seconds.
 Elapsed time:       0 days  0 hours  0 minutes 11.8 seconds.
 File lengths (MBytes):  RWF=     22 Int=      0 D2E=      0 Chk=      4 Scr=      1
 Normal termination of Gaussian 16 at Fri Nov 13 17:04:31 2020.
